                               Psi4 1.3.2 release

  ==> Input File <==

--------------------------------------------------------------------------
memory 8gb
molecule {
    symmetry c1 # this is important; some perturbations will break symmetry
#    no_reorient
N         0.22865335412548   -2.41847723888949   -0.01094411566058
C         0.28297197222917   -2.35524545361232    1.31808412563266
C         0.20317278977531   -1.28482706750435   -0.68294675580940
C         0.09256630109172   -0.07777106661480   -2.60220049375416
C         0.36342044649744    2.18184540506590    1.32341358362285
N         0.24619262948058   -0.08440569754532    0.01297537281376
N         0.13372175859043   -1.26378347577838   -1.99922923353959
N         0.26868226127516    2.25040949236675   -0.00246008077993
N         0.32832303407930   -1.23799402906009    2.04037351299192
C         0.29226911220659   -3.61794359632660    2.04754248278931
N         0.38381884326671    1.06138537609837    2.04241330799309
C         0.32070471324918   -0.08700854521599    1.39891653364884
C         0.45302575221793    3.44232514890684    2.05100848883318
C         0.21200809423249    1.11952199706044   -0.67659655387840
N         0.12688355589371    1.10486818621062   -1.99126407150776
C         0.00240977166180   -0.06618173146014   -4.05763257327488
H         0.32683115098431   -4.80292753579700    0.27353972767484
C         0.29425779905552   -3.62119414164239    3.44370775182549
C         0.29341082227975   -6.02982566916202    3.43450394694620
C         0.31007624933837   -4.82748742549672    1.35160527531806
C         0.31143629003497   -7.27927924466031    4.24850328007023
H         0.36252282383415   -6.94753362946315    1.48070356026860
C         0.31180874284905   -6.02335098690324    2.03958716056086
C         0.29955786409428   -4.81822032088844    4.12604258028863
H         0.29383229959245   -2.67700323008642    3.96431239384239
H         0.30921842321662   -4.84515615626362    5.20527433739518
C         0.01239693293139   -1.26173233505347   -4.77811196346894
C        -0.07248188250232   -1.23308343427019   -6.15360203604132
H        -0.31428334439861    2.12404243134973   -6.60956493292248
C        -0.10852377820504    1.14970689583217   -4.73397044589514
H         0.08487246670732   -2.19229122558799   -4.23824429291336
H        -0.13285074799435    2.06068284333980   -4.15735141990869
C        -0.19067024340695    1.17296943712603   -6.11040625952817
C        -0.15942277317943   -0.01886799517196   -6.83495096635354
C        -0.26278326506273   -0.06985967505325   -8.32217201016887
H        -0.07426766654952   -2.14518664645380   -6.73123381910501
C         0.72577225767647    7.16588602026308    4.12701823336592
H         0.44348749415886    6.79299202696661    1.55114851659600
C         0.48093593789612    5.84222705612847    2.06123908234087
H         0.87459187264478    4.59794992833940    5.19701997967728
H         0.27457593826268    4.64102318922750    0.29303755290933
C         0.62464460686582    5.84141481649887    3.44881027710120
C         0.62091946907962    3.43657348974079    3.43644520027289
C         0.70719280244579    4.62630259126728    4.12921788433012
H         0.68616209624752    2.48770323599197    3.94483188857891
C         0.39056677397325    4.65653490523201    1.36488436728830
O         0.79447023439818   -7.33924651622485    5.35779860832909
N        -0.28600186410313   -8.35518100758828    3.63727369317838
C        -0.45821341886540  -11.87777956682277    5.40139499735597
N         0.24441708729709    1.04033544469155   -8.95302764330552
O        -0.73966404824117   -1.00794267448294   -8.92201130829647
C        -1.17681834002317   10.47307116359428   12.59153080660678
C         0.22531015331500    1.20513483501842  -10.28130997070021
H         0.71877446462194   11.31270733996550    7.19687521820103
C         0.17130967379364    1.31767948942752  -11.48201647037357
C         0.34276021145701   10.40935087198630    7.66314273805589
C        -2.54622671596318  -16.08721864836684    3.27496377372034
C        -0.36942774982912   -9.56256625435506    4.20957354393413
C         0.12294895657113    1.48554802610721  -12.86969142093103
C        -2.02445482148993  -15.02157302385581    3.80812932740052
C         0.51793407026916    2.58659288200812  -13.47958576845858
C        -0.42721764284767   10.43587839597910   10.12860453102051
C        -0.40318812301220  -10.62777674064884    4.77667645780910
H        -0.26504456776569    0.65089167105763  -13.44212154715441
C         0.88804451963837    3.64250017432511  -14.06745752464952
H        -0.48770918988781   10.26473389446759   13.39543007045326
C         1.25187558710836    4.70747396625128  -14.66443672717986
H         0.93482714112430    6.60496804663010  -15.45687901747520
C        -1.51206309898113  -13.97729403428435    4.32758929507237
H        -3.58734425283364  -16.33680519084664    3.40959509048170
C         1.62443329400597    5.79571295768701  -15.27195104300774
C        -0.99885442757571  -12.94624095096700    4.84823560527097
H        -1.95886772840866  -16.76700321626405    2.67728267772666
O         1.16412876373209    8.15638026258534    3.58478439881313
N         0.26048983873790    7.16697880469390    5.41979614018338
H        -0.02058883455742  -11.93699958389894    6.39155322688491
C         0.26941229348640    8.25470483512531    6.20003578743367
C        -0.05277983106460   10.42248657359048    8.92151135569109
C         0.31196004136403    9.26396266992886    6.86115825514186
H        -2.19484990449436   10.69550967123509   12.87189014230603
C        -0.79859586401190   10.45646818199056   11.34702087075818
H         2.63741666620708    5.93446868452176  -15.61709872258882
H        -0.15905049982251    6.33103497667136    5.80346346567967
H         0.69728927568591    1.76257886060919   -8.40960114613905
H        -0.73685315178029   -8.23885219058750    2.73999985228453

}
set {
    basis     6-31g
    d_convergence   10
    reference rhf
    scf_type direct
}

method = 'B3LYP'
E, wfn = energy(method, return_wfn=True)
molden(wfn, 'HS_25.molden')
--------------------------------------------------------------------------

    Molecular point group: c1

    Geometry (in Angstrom), charge = 0, multiplicity = 1:

       Center              X                  Y                   Z               Mass
    ------------   -----------------  -----------------  -----------------  -----------------
         N            0.144239390877    -2.375144276013    -0.057267793290    14.003074004430
         C            0.198558008981    -2.311912490736     1.271760448003    12.000000000000
         C            0.118758826527    -1.241494104628    -0.729270433439    12.000000000000
         C            0.008152337844    -0.034438103738    -2.648524171384    12.000000000000
         C            0.279006483249     2.225178367943     1.277089905993    12.000000000000
         N            0.161778666232    -0.041072734669    -0.033348304816    14.003074004430
         N            0.049307795342    -1.220450512902    -2.045552911169    14.003074004430
         N            0.184268298027     2.293742455243    -0.048783758409    14.003074004430
         N            0.243909070831    -1.194661066183     1.994049835362    14.003074004430
         C            0.207855148958    -3.574610633450     2.001218805160    12.000000000000
         N            0.299404880019     1.104718338975     1.996089630364    14.003074004430
         C            0.236290750001    -0.043675582339     1.352592856019    12.000000000000
         C            0.368611788970     3.485658111784     2.004684811204    12.000000000000
         C            0.127594130984     1.162854959937    -0.722920231508    12.000000000000
         N            0.042469592646     1.148201149087    -2.037587749137    14.003074004430
         C           -0.082004191586    -0.022848768583    -4.103956250904    12.000000000000
         H            0.242417187736    -4.759594572920     0.227216050045     1.007825032230
         C            0.209843835807    -3.577861178766     3.397384074196    12.000000000000
         C            0.208996859032    -5.986492706285     3.388180269317    12.000000000000
         C            0.225662286090    -4.784154462620     1.305281597689    12.000000000000
         C            0.227022326787    -7.235946281784     4.202179602441    12.000000000000
         H            0.278108860586    -6.904200666586     1.434379882639     1.007825032230
         C            0.227394779601    -5.980018024027     1.993263482931    12.000000000000
         C            0.215143900846    -4.774887358012     4.079718902659    12.000000000000
         H            0.209418336344    -2.633670267210     3.917988716213     1.007825032230
         H            0.224804459969    -4.801823193387     5.158950659766     1.007825032230
         C           -0.072017030317    -1.218399372177    -4.824435641098    12.000000000000
         C           -0.156895845750    -1.189750471394    -6.199925713671    12.000000000000
         H           -0.398697307647     2.167375394226    -6.655888610552     1.007825032230
         C           -0.192937741453     1.193039858709    -4.780294123525    12.000000000000
         H            0.000458503459    -2.148958262711    -4.284567970543     1.007825032230
         H           -0.217264711242     2.104015806216    -4.203675097538     1.007825032230
         C           -0.275084206655     1.216302400003    -6.156729937158    12.000000000000
         C           -0.243836736428     0.024464967705    -6.881274643983    12.000000000000
         C           -0.347197228311    -0.026526712177    -8.368495687798    12.000000000000
         H           -0.158681629798    -2.101853683577    -6.777557496734     1.007825032230
         C            0.641358294428     7.209218983140     4.080694555736    12.000000000000
         H            0.359073530911     6.836324989843     1.504824838967     1.007825032230
         C            0.396521974648     5.885560019005     2.014915404711    12.000000000000
         H            0.790177909397     4.641282891216     5.150696302048     1.007825032230
         H            0.190161975015     4.684356152104     0.246713875280     1.007825032230
         C            0.540230643618     5.884747779376     3.402486599472    12.000000000000
         C            0.536505505832     3.479906452617     3.390121522643    12.000000000000
         C            0.622778839198     4.669635554144     4.082894206701    12.000000000000
         H            0.601748132999     2.531036198869     3.898508210949     1.007825032230
         C            0.306152810725     4.699867868109     1.318560689659    12.000000000000
         O            0.710056271150    -7.295913553348     5.311474930700    15.994914619570
         N           -0.370415827351    -8.311848044712     3.590950015549    14.003074004430
         C           -0.542627382114   -11.834446603946     5.355071319726    12.000000000000
         N            0.160003124049     1.083668407568    -8.999351320935    14.003074004430
         O           -0.824078011489    -0.964609711606    -8.968334985926    15.994914619570
         C           -1.261232303271    10.516404126471    12.545207128977    12.000000000000
         C            0.140896190067     1.248467797895   -10.327633648330    12.000000000000
         H            0.634360501374    11.356040302842     7.150551540572     1.007825032230
         C            0.086895710546     1.361012452304   -11.528340148003    12.000000000000
         C            0.258346248209    10.452683834863     7.616819060426    12.000000000000
         C           -2.630640679211   -16.043885685490     3.228640096091    12.000000000000
         C           -0.453841713077    -9.519233291478     4.163249866305    12.000000000000
         C            0.038534993323     1.528880988984   -12.916015098561    12.000000000000
         C           -2.108868784738   -14.978240060979     3.761805649771    12.000000000000
         C            0.433520107021     2.629925844885   -13.525909446088    12.000000000000
         C           -0.511631606096    10.479211358856    10.082280853391    12.000000000000
         C           -0.487602086260   -10.584443777772     4.730352780180    12.000000000000
         H           -0.349458531014     0.694224633934   -13.488445224784     1.007825032230
         C            0.803630556390     3.685833137202   -14.113781202279    12.000000000000
         H           -0.572123153136    10.308066857344    13.349106392824     1.007825032230
         C            1.167461623860     4.750806929128   -14.710760404809    12.000000000000
         H            0.850413177876     6.648301009507   -15.503202695105     1.007825032230
         C           -1.596477062229   -13.933961071408     4.281265617443    12.000000000000
         H           -3.671758216082   -16.293472227970     3.363271412852     1.007825032230
         C            1.540019330758     5.839045920564   -15.318274720637    12.000000000000
         C           -1.083268390824   -12.902907988090     4.801911927641    12.000000000000
         H           -2.043281691657   -16.723670253387     2.630959000097     1.007825032230
         O            1.079714800484     8.199713225462     3.538460721184    15.994914619570
         N            0.176075875490     7.210311767571     5.373472462554    14.003074004430
         H           -0.105002797806   -11.893666621022     6.345229549255     1.007825032230
         C            0.184998330238     8.298037798002     6.153712109804    12.000000000000
         C           -0.137193794313    10.465819536467     8.875187678062    12.000000000000
         C            0.227546078116     9.307295632806     6.814834577512    12.000000000000
         H           -2.279263867742    10.738842634112    12.825566464677     1.007825032230
         C           -0.883009827260    10.499801144867    11.300697193129    12.000000000000
         H            2.553002702959     5.977801647398   -15.663422400218     1.007825032230
         H           -0.243464463071     6.374367939548     5.757139788050     1.007825032230
         H            0.612875312438     1.805911823486    -8.455924823769     1.007825032230
         H           -0.821267115028    -8.195519227711     2.693676174655     1.007825032230

  Charge       = 0
  Multiplicity = 1
  Basis Set: 6-31G
    Blend: 6-31G
  Basis Set: (6-31G AUX)
    Blend: CC-PVDZ-JKFIT

    Orbital Energies [Eh]
    ---------------------

    Doubly Occupied:

       1A    -19.140450     2A    -19.140428     3A    -19.140408
       4A    -14.480596     5A    -14.410013     6A    -14.409964
       7A    -14.409825     8A    -14.368406     9A    -14.368363
      10A    -14.368223    11A    -14.368114    12A    -14.368103
      13A    -14.368028    14A    -10.359344    15A    -10.359124
      16A    -10.359038    17A    -10.317883    18A    -10.317877
      19A    -10.317871    20A    -10.313828    21A    -10.313797
      22A    -10.313740    23A    -10.232197    24A    -10.232191
      25A    -10.232106    26A    -10.227936    27A    -10.227923
      28A    -10.227912    29A    -10.225761    30A    -10.225743
      31A    -10.225654    32A    -10.223366    33A    -10.223348
      34A    -10.223348    35A    -10.219864    36A    -10.219862
      37A    -10.219737    38A    -10.219526    39A    -10.219525
      40A    -10.219480    41A    -10.219415    42A    -10.219385
      43A    -10.219254    44A    -10.213851    45A    -10.213759
      46A    -10.213436    47A    -10.211277    48A    -10.211012
      49A    -10.210831    50A    -10.209979    51A    -10.209841
      52A    -10.209769    53A    -10.209749    54A    -10.209684
      55A    -10.209644    56A    -10.203672    57A    -10.203623
      58A    -10.203579    59A    -10.201918    60A    -10.201898
      61A    -10.201769    62A     -1.152229    63A     -1.088980
      64A     -1.088911    65A     -1.088775    66A     -1.061983
      67A     -1.061945    68A     -0.986472    69A     -0.979103
      70A     -0.979075    71A     -0.978992    72A     -0.975092
      73A     -0.975009    74A     -0.913478    75A     -0.898763
      76A     -0.898753    77A     -0.898279    78A     -0.835400
      79A     -0.835347    80A     -0.835166    81A     -0.822550
      82A     -0.820522    83A     -0.820440    84A     -0.804829
      85A     -0.804693    86A     -0.804602    87A     -0.783873
      88A     -0.783791    89A     -0.782598    90A     -0.769103
      91A     -0.767334    92A     -0.767271    93A     -0.752195
      94A     -0.751438    95A     -0.751368    96A     -0.724995
      97A     -0.724882    98A     -0.723935    99A     -0.690475
     100A     -0.690318   101A     -0.681263   102A     -0.662471
     103A     -0.662416   104A     -0.651437   105A     -0.651364
     106A     -0.648485   107A     -0.640824   108A     -0.638621
     109A     -0.638566   110A     -0.626515   111A     -0.626495
     112A     -0.625930   113A     -0.605438   114A     -0.605224
     115A     -0.603485   116A     -0.597357   117A     -0.597265
     118A     -0.570360   119A     -0.566631   120A     -0.562292
     121A     -0.554856   122A     -0.554798   123A     -0.538874
     124A     -0.535412   125A     -0.535295   126A     -0.524119
     127A     -0.506732   128A     -0.506706   129A     -0.494971
     130A     -0.494953   131A     -0.494791   132A     -0.489528
     133A     -0.489501   134A     -0.489237   135A     -0.485404
     136A     -0.485243   137A     -0.483498   138A     -0.472747
     139A     -0.472679   140A     -0.470161   141A     -0.469012
     142A     -0.468640   143A     -0.458485   144A     -0.458437
     145A     -0.458366   146A     -0.457426   147A     -0.456761
     148A     -0.456686   149A     -0.451144   150A     -0.451091
     151A     -0.450778   152A     -0.437788   153A     -0.435501
     154A     -0.435445   155A     -0.423816   156A     -0.406715
     157A     -0.406639   158A     -0.402963   159A     -0.398663
     160A     -0.398563   161A     -0.385961   162A     -0.379734
     163A     -0.379656   164A     -0.372930   165A     -0.371153
     166A     -0.370937   167A     -0.370222   168A     -0.366827
     169A     -0.366773   170A     -0.356142   171A     -0.356120
     172A     -0.355997   173A     -0.350351   174A     -0.346675
     175A     -0.346089   176A     -0.345783   177A     -0.344061
     178A     -0.343963   179A     -0.294678   180A     -0.294143
     181A     -0.293723   182A     -0.289763   183A     -0.289171
     184A     -0.288256   185A     -0.287155   186A     -0.287037
     187A     -0.285084   188A     -0.284429   189A     -0.283960
     190A     -0.283798   191A     -0.282241   192A     -0.282010
     193A     -0.280723   194A     -0.273939   195A     -0.270945
     196A     -0.270892   197A     -0.259845   198A     -0.245639
     199A     -0.245616   200A     -0.245509   201A     -0.209002
     202A     -0.208859   203A     -0.208792

  @RKS Final Energy: -2615.49007522938155

   => Energetics <=

    Nuclear Repulsion Energy =           6211.4394366162596270
    One-Electron Energy =              -15899.3466850581480685
    Two-Electron Energy =                7367.4075541067722952
    DFT Exchange-Correlation Energy =    -294.9903808942651722
    Empirical Dispersion Energy =           0.0000000000000000
    VV10 Nonlocal Energy =                  0.0000000000000000
    Total Energy =                      -2615.4900752293815458

  Dipole Moment: [D]
     X:    -1.4663      Y:     0.0543      Z:     0.1492     Total:     1.4749

*** Psi4 exiting successfully. Buy a developer a beer!
