                               Psi4 1.3.2 release

  ==> Input File <==

--------------------------------------------------------------------------
memory 8gb
molecule {
    symmetry c1 # this is important; some perturbations will break symmetry
#    no_reorient
N         0.21975826253394   -2.36849311256202   -0.05872192174198
C         0.25986975126628   -2.31128988678733    1.27085518883607
C         0.26132146788333   -1.23369991044727   -0.72812632535367
C         0.29888726677050   -0.02363824216314   -2.64889025850876
C         0.41602167303421    2.22451586168217    1.29224825468591
N         0.32887338591139   -0.03683865482945   -0.02867405315031
N         0.24184220959613   -1.20929150296058   -2.04540093689716
N         0.42463524955434    2.29577170984938   -0.03741317421364
N         0.32578637944896   -1.19720816781713    1.99705590613213
C         0.22930765806254   -3.57722701055748    1.99378150129458
N         0.38860315246573    1.10209653658636    2.00785056496261
C         0.34947987977020   -0.04450737570842    1.35900601485317
C         0.43384676471069    3.48296392018401    2.02864290295906
C         0.37695084380854    1.16756522697145   -0.71678800600552
N         0.36787038454394    1.15580659763157   -2.03492132828083
C         0.27858249477109   -0.01707062218986   -4.10690394041599
H        -0.03138199901787   -4.73832536184695    0.22309774093420
C         0.34410133807999   -3.59530950802502    3.38478523788148
C         0.18610067770650   -5.99851529916339    3.36341321265766
C         0.07344916134892   -4.77568491851723    1.29587282037287
C         0.14592394472073   -7.26160245315676    4.16549538775395
H        -0.10570590396225   -6.89151827187884    1.42394370378847
C         0.04955788024433   -5.97563228892510    1.97656953529931
C         0.31815188935418   -4.79762943352023    4.05849750072178
H         0.44943806646519   -2.65862701294953    3.90846340257161
H         0.39550407442224   -4.83556930712152    5.13460303430414
C         0.18473614863383   -1.21748996435423   -4.81316159730333
C         0.15847007532183   -1.20151318893224   -6.19139845203004
H         0.41910783699989    2.14027207841630   -6.70607401409455
C         0.36056139857824    1.19088762389403   -4.80129306551531
H         0.13635202468566   -2.14178926482136   -4.25990640113583
H         0.45147233224914    2.10546918991841   -4.23692836300960
C         0.32655229636140    1.20019186270577   -6.18066722345694
C         0.21136256147711    0.00460622819430   -6.88743456541370
C         0.18442036208339   -0.05339592078742   -8.38288018624915
H         0.09708800082341   -2.11826923996409   -6.75816842690577
C         0.43646258118440    7.20282546435415    4.14085300528070
H         0.56048962234617    6.83318103337029    1.54311313862972
C         0.51436685018067    5.88174455692272    2.05112036552705
H         0.26087248601260    4.64362138754572    5.19851200875296
H         0.56088365712641    4.68412362857964    0.26813689141505
C         0.45252049258646    5.87842083888349    3.44350614072632
C         0.35121992324247    3.47604390348455    3.42190649925801
C         0.35922517480101    4.66476988214958    4.12231845824787
H         0.27542421692042    2.52750239014650    3.92961255953774
C         0.51051555831488    4.69762004064815    1.34518183908970
O        -0.29336386269176   -7.28953806596570    5.29840960046368
N         0.66445272272351   -8.34837920201494    3.54899907748410
H         1.62297318608953  -10.11960963126699    4.07106552992857
N        -0.45398705002703    0.97955047880913   -8.97854577759988
O         0.67549237064124   -0.97658007039939   -9.00184571469139
H        -0.85712557173345    1.70976318670084   -8.41426758907959
C        -0.54884596215712    1.11542310016591  -10.41306241538956
H        -1.60254504417425    1.19358440561372  -10.70275965429182
C         0.22407311540476    2.33250516150433  -10.92245883036181
H        -0.13216242987291    0.19946882819012  -10.83787062620306
H        -0.18402503741849    3.23949833014107  -10.46801712472379
H         1.26805106979344    2.24321477309969  -10.61541868317003
C         0.14483114878008    2.44403334241226  -12.44244775037212
H        -0.90243838991468    2.51805968178668  -12.74518307772602
C         0.90908038999128    3.65595476931500  -12.97009184567632
H         0.55455344436936    1.53622431142520  -12.88973825571825
H         0.49705829083178    4.56594616934553  -12.52713809614010
H         1.95518674824898    3.58432076426714  -12.66404445523242
C         0.83445744137070    3.75721736813382  -14.49166630535289
H        -0.21243192637964    3.82233867689704  -14.79794924943721
C         1.59171536294823    4.97009756122124  -15.02646128713999
H         1.25050456847311    2.84883019747988  -14.93350436207910
H         1.17421251530455    5.87945609818174  -14.58730857945951
H         2.63846620774018    4.90653746236219  -14.71979950858881
C         1.51835184384678    5.06701633386111  -16.54843798278760
H         0.47140902961433    5.12301474907774  -16.85557043041234
C         2.26642894074141    6.28454837705709  -17.07716318266118
H         1.94294603251939    4.16133460185364  -16.98753594979521
H         1.84350496990989    7.19952282233180  -16.66778145085386
H         3.31649434837659    6.23856997505374  -16.79657267739070
H         2.20287153495377    6.33250901720982  -18.16180007345119
O        -0.05178960325520    8.19219530525591    3.63108850583622
N         1.02910242843904    7.21521805035976    5.35659761879580
H         1.42787637233810    6.36800683604362    5.72701972202204
C         1.05439255365514    8.38817424858156    6.19859825573623
H         0.67360455639768    9.21241493540970    5.59140449869678
C         0.18901741414855    8.21150142391032    7.44726769181608
H         2.08828121665120    8.60674781402217    6.48671164748008
H        -0.83287970577619    7.98145398373136    7.13903717211316
H         0.56207650251798    7.36683695750043    8.03298020503780
C         0.19232372381034    9.47090118874900    8.30920396704305
H        -0.17495662414066   10.31098988345772    7.71637384700135
C        -0.67594115157851    9.31555757134196    9.55556768841168
H         1.21741625511152    9.70111884383710    8.60937495776836
H        -1.69991259626253    9.08266210689180    9.25490408737076
H        -0.30830994113016    8.47718475348049   10.15225715653869
C        -0.67693040658621   10.58085081331885   10.41003442092879
H        -1.04252266803052   11.41861108178719    9.81166665449892
C        -1.54720418287416   10.43426700690522   11.65574761504348
H         0.34732530885890   10.81386877858260   10.71115612191535
H        -2.57149902327273   10.20114196417365   11.35523965514407
H        -1.18138123351192    9.59774760898657   12.25621609586863
C        -1.54901948882146   11.70176810749271   12.50702978327156
H        -1.91895933235024   12.53700984652120   11.90791693596001
C        -2.41475523368176   11.54927535223169   13.75157358270470
H        -0.52446963124027   11.93734239456245   12.80439739164929
H        -3.44451725967585   11.33242249183945   13.47566759517789
H        -2.04915048355847   10.73460545048070   14.37314447706116
H        -2.40272157585445   12.46293848006879   14.34138945219304
C         0.62991783722310   -9.66462700507839    4.14239875227217
H         0.37737975755423   -9.52287695508281    5.19562076073965
C        -0.41237365084344  -10.56255857597371    3.47316219720065
H         1.00823692878524   -8.27125575526021    2.60576733933938
H        -4.89830410733488  -16.79588963469948    3.74500982684333
H        -3.98988735545109  -18.24067614147068    4.19241113188151
H        -1.88351077072908  -16.92523860777504    4.23259124082772
C        -3.92892430378695  -17.28501183670773    3.67690676445592
H        -3.06652764391661  -16.24916366934960    5.35124598357784
H        -3.71515023170424  -17.47421598306442    2.62706127194554
H        -0.16240299749602  -10.68843806521210    2.41615942024303
C        -0.48902630405602  -11.92935083161836    4.14725440451746
H        -1.38603414211048  -10.07174354097432    3.53234668759463
H         0.48304097068111  -12.42354655377163    4.07865484899907
H        -0.71669490329145  -11.79265428099232    5.20633696571863
C        -1.55633309234994  -12.81884558380278    3.51403139211759
H        -1.32488388687060  -12.96855505057770    2.45665826314559
C        -1.65409328365386  -14.17560590808763    4.20711383896645
H        -2.52391937316928  -12.31514894057998    3.57189479715938
H        -0.69042195117493  -14.68640180788073    4.14063894766138
H        -1.87319805323915  -14.02279434908204    5.26647241748224
C        -2.73720710141007  -15.05819139004231    3.59184633976933
H        -2.51613795152883  -15.21806932441847    2.53369065621322
C        -2.84483455011455  -16.40979136948237    4.29366581722120
H        -3.69920383410323  -14.54372655567229    3.65342284942201

}
set {
    basis     6-31g
    d_convergence   10
    reference rhf
    scf_type direct
}

method = 'B3LYP'
E, wfn = energy(method, return_wfn=True)
molden(wfn, 'HS_40.molden')
--------------------------------------------------------------------------

    Molecular point group: c1

    Geometry (in Angstrom), charge = 0, multiplicity = 1:

       Center              X                  Y                   Z               Mass
    ------------   -----------------  -----------------  -----------------  -----------------
         N            0.229410101467    -2.368602199935    -0.058613540849    14.003074004430
         C            0.269521590199    -2.311398974160     1.270963569729    12.000000000000
         C            0.270973306816    -1.233808997820    -0.728017944461    12.000000000000
         C            0.308539105703    -0.023747329536    -2.648781877616    12.000000000000
         C            0.425673511967     2.224406774309     1.292356635579    12.000000000000
         N            0.338525224844    -0.036947742202    -0.028565672257    14.003074004430
         N            0.251494048529    -1.209400590333    -2.045292556004    14.003074004430
         N            0.434287088487     2.295662622477    -0.037304793321    14.003074004430
         N            0.335438218382    -1.197317255190     1.997164287025    14.003074004430
         C            0.238959496995    -3.577336097930     1.993889882187    12.000000000000
         N            0.398254991398     1.101987449214     2.007958945855    14.003074004430
         C            0.359131718703    -0.044616463081     1.359114395746    12.000000000000
         C            0.443498603643     3.482854832811     2.028751283852    12.000000000000
         C            0.386602682741     1.167456139599    -0.716679625113    12.000000000000
         N            0.377522223477     1.155697510259    -2.034812947388    14.003074004430
         C            0.288234333704    -0.017179709563    -4.106795559523    12.000000000000
         H           -0.021730160085    -4.738434449220     0.223206121827     1.007825032230
         C            0.353753177013    -3.595418595398     3.384893618774    12.000000000000
         C            0.195752516639    -5.998624386536     3.363521593551    12.000000000000
         C            0.083101000282    -4.775794005890     1.295981201266    12.000000000000
         C            0.155575783653    -7.261711540530     4.165603768647    12.000000000000
         H           -0.096054065030    -6.891627359252     1.424052084681     1.007825032230
         C            0.059209719177    -5.975741376298     1.976677916192    12.000000000000
         C            0.327803728287    -4.797738520893     4.058605881615    12.000000000000
         H            0.459089905398    -2.658736100322     3.908571783464     1.007825032230
         H            0.405155913355    -4.835678394494     5.134711415197     1.007825032230
         C            0.194387987567    -1.217599051727    -4.813053216410    12.000000000000
         C            0.168121914255    -1.201622276305    -6.191290071137    12.000000000000
         H            0.428759675933     2.140162991044    -6.705965633202     1.007825032230
         C            0.370213237511     1.190778536521    -4.801184684622    12.000000000000
         H            0.146003863618    -2.141898352194    -4.259798020243     1.007825032230
         H            0.461124171182     2.105360102546    -4.236819982117     1.007825032230
         C            0.336204135294     1.200082775333    -6.180558842564    12.000000000000
         C            0.221014400410     0.004497140822    -6.887326184521    12.000000000000
         C            0.194072201016    -0.053505008160    -8.382771805356    12.000000000000
         H            0.106739839756    -2.118378327337    -6.758060046013     1.007825032230
         C            0.446114420117     7.202716376981     4.140961386174    12.000000000000
         H            0.570141461279     6.833071945998     1.543221519523     1.007825032230
         C            0.524018689113     5.881635469550     2.051228746420    12.000000000000
         H            0.270524324945     4.643512300173     5.198620389646     1.007825032230
         H            0.570535496059     4.684014541207     0.268245272308     1.007825032230
         C            0.462172331519     5.878311751511     3.443614521619    12.000000000000
         C            0.360871762175     3.475934816112     3.422014880151    12.000000000000
         C            0.368877013734     4.664660794777     4.122426839141    12.000000000000
         H            0.285076055853     2.527393302774     3.929720940431     1.007825032230
         C            0.520167397248     4.697510953275     1.345290219983    12.000000000000
         O           -0.283712023759    -7.289647153338     5.298517981357    15.994914619570
         N            0.674104561656    -8.348488289388     3.549107458377    14.003074004430
         H            1.632625025022   -10.119718718640     4.071173910821     1.007825032230
         N           -0.444335211094     0.979441391436    -8.978437396707    14.003074004430
         O            0.685144209574    -0.976689157772    -9.001737333799    15.994914619570
         H           -0.847473732801     1.709654099328    -8.414159208187     1.007825032230
         C           -0.539194123224     1.115314012793   -10.412954034497    12.000000000000
         H           -1.592893205242     1.193475318241   -10.702651273399     1.007825032230
         C            0.233724954337     2.332396074132   -10.922350449469    12.000000000000
         H           -0.122510590940     0.199359740817   -10.837762245310     1.007825032230
         H           -0.174373198486     3.239389242768   -10.467908743831     1.007825032230
         H            1.277702908726     2.243105685727   -10.615310302277     1.007825032230
         C            0.154482987713     2.443924255039   -12.442339369479    12.000000000000
         H           -0.892786550982     2.517950594414   -12.745074696833     1.007825032230
         C            0.918732228924     3.655845681942   -12.969983464783    12.000000000000
         H            0.564205283302     1.536115224052   -12.889629874825     1.007825032230
         H            0.506710129764     4.565837081973   -12.527029715247     1.007825032230
         H            1.964838587182     3.584211676894   -12.663936074340     1.007825032230
         C            0.844109280303     3.757108280761   -14.491557924460    12.000000000000
         H           -0.202780087447     3.822229589524   -14.797840868544     1.007825032230
         C            1.601367201881     4.969988473848   -15.026352906247    12.000000000000
         H            1.260156407406     2.848721110107   -14.933395981186     1.007825032230
         H            1.183864354237     5.879347010809   -14.587200198567     1.007825032230
         H            2.648118046673     4.906428374989   -14.719691127696     1.007825032230
         C            1.528003682779     5.066907246488   -16.548329601895    12.000000000000
         H            0.481060868547     5.122905661705   -16.855462049519     1.007825032230
         C            2.276080779674     6.284439289684   -17.077054801768    12.000000000000
         H            1.952597871452     4.161225514481   -16.987427568902     1.007825032230
         H            1.853156808843     7.199413734959   -16.667673069961     1.007825032230
         H            3.326146187309     6.238460887681   -16.796464296498     1.007825032230
         H            2.212523373886     6.332399929837   -18.161691692558     1.007825032230
         O           -0.042137764322     8.192086217883     3.631196886729    15.994914619570
         N            1.038754267372     7.215108962987     5.356705999689    14.003074004430
         H            1.437528211271     6.367897748671     5.727128102915     1.007825032230
         C            1.064044392588     8.388065161209     6.198706636629    12.000000000000
         H            0.683256395330     9.212305848037     5.591512879590     1.007825032230
         C            0.198669253081     8.211392336538     7.447376072709    12.000000000000
         H            2.097933055584     8.606638726649     6.486820028373     1.007825032230
         H           -0.823227866843     7.981344896359     7.139145553006     1.007825032230
         H            0.571728341451     7.366727870128     8.033088585931     1.007825032230
         C            0.201975562743     9.470792101376     8.309312347936    12.000000000000
         H           -0.165304785208    10.310880796085     7.716482227894     1.007825032230
         C           -0.666289312646     9.315448483969     9.555676069305    12.000000000000
         H            1.227068094044     9.701009756464     8.609483338661     1.007825032230
         H           -1.690260757330     9.082553019519     9.255012468264     1.007825032230
         H           -0.298658102197     8.477075666108    10.152365537432     1.007825032230
         C           -0.667278567653    10.580741725946    10.410142801822    12.000000000000
         H           -1.032870829098    11.418501994414     9.811775035392     1.007825032230
         C           -1.537552343941    10.434157919532    11.655855995936    12.000000000000
         H            0.356977147792    10.813759691210    10.711264502808     1.007825032230
         H           -2.561847184340    10.201032876801    11.355348036037     1.007825032230
         H           -1.171729394579     9.597638521614    12.256324476762     1.007825032230
         C           -1.539367649889    11.701659020120    12.507138164164    12.000000000000
         H           -1.909307493418    12.536900759148    11.908025316853     1.007825032230
         C           -2.405103394749    11.549166264859    13.751681963598    12.000000000000
         H           -0.514817792308    11.937233307190    12.804505772542     1.007825032230
         H           -3.434865420743    11.332313404467    13.475775976071     1.007825032230
         H           -2.039498644626    10.734496363108    14.373252857954     1.007825032230
         H           -2.393069736922    12.462829392696    14.341497833086     1.007825032230
         C            0.639569676156    -9.664736092451     4.142507133165    12.000000000000
         H            0.387031596487    -9.522986042456     5.195729141633     1.007825032230
         C           -0.402721811911   -10.562667663346     3.473270578094    12.000000000000
         H            1.017888767718    -8.271364842633     2.605875720232     1.007825032230
         H           -4.888652268402   -16.795998722072     3.745118207736     1.007825032230
         H           -3.980235516518   -18.240785228843     4.192519512774     1.007825032230
         H           -1.873858931796   -16.925347695148     4.232699621721     1.007825032230
         C           -3.919272464854   -17.285120924081     3.677015145349    12.000000000000
         H           -3.056875804984   -16.249272756722     5.351354364471     1.007825032230
         H           -3.705498392772   -17.474325070437     2.627169652838     1.007825032230
         H           -0.152751158563   -10.688547152585     2.416267801136     1.007825032230
         C           -0.479374465123   -11.929459918991     4.147362785410    12.000000000000
         H           -1.376382303178   -10.071852628347     3.532455068488     1.007825032230
         H            0.492692809614   -12.423655641144     4.078763229892     1.007825032230
         H           -0.707043064359   -11.792763368365     5.206445346612     1.007825032230
         C           -1.546681253417   -12.818954671176     3.514139773010    12.000000000000
         H           -1.315232047938   -12.968664137950     2.456766644038     1.007825032230
         C           -1.644441444721   -14.175714995460     4.207222219859    12.000000000000
         H           -2.514267534237   -12.315258027953     3.572003178052     1.007825032230
         H           -0.680770112242   -14.686510895254     4.140747328554     1.007825032230
         H           -1.863546214306   -14.022903436455     5.266580798375     1.007825032230
         C           -2.727555262477   -15.058300477415     3.591954720662    12.000000000000
         H           -2.506486112596   -15.218178411791     2.533799037106     1.007825032230
         C           -2.835182711182   -16.409900456855     4.293774198114    12.000000000000
         H           -3.689551995171   -14.543835643045     3.653531230315     1.007825032230

  Charge       = 0
  Multiplicity = 1
  Basis Set: 6-31G
    Blend: 6-31G
  Basis Set: (6-31G AUX)
    Blend: CC-PVDZ-JKFIT

    Orbital Energies [Eh]
    ---------------------

    Doubly Occupied:

       1A    -19.113436     2A    -19.113336     3A    -19.113299
       4A    -14.469372     5A    -14.358716     6A    -14.358706
       7A    -14.358704     8A    -14.357160     9A    -14.357118
      10A    -14.357099    11A    -14.357053    12A    -14.357005
      13A    -14.356995    14A    -10.348194    15A    -10.348139
      16A    -10.348116    17A    -10.302611    18A    -10.302600
      19A    -10.302569    20A    -10.292905    21A    -10.292897
      22A    -10.292872    23A    -10.215042    24A    -10.215004
      25A    -10.214997    26A    -10.212297    27A    -10.212250
      28A    -10.212250    29A    -10.210608    30A    -10.210571
      31A    -10.210545    32A    -10.205338    33A    -10.205070
      34A    -10.204908    35A    -10.201510    36A    -10.201440
      37A    -10.201363    38A    -10.198748    39A    -10.198738
      40A    -10.198689    41A    -10.196445    42A    -10.196248
      43A    -10.196136    44A    -10.180722    45A    -10.180449
      46A    -10.179795    47A    -10.176242    48A    -10.176059
      49A    -10.175608    50A    -10.172573    51A    -10.172383
      52A    -10.171998    53A    -10.169824    54A    -10.169729
      55A    -10.169697    56A    -10.169577    57A    -10.169493
      58A    -10.169267    59A    -10.168416    60A    -10.168261
      61A    -10.168013    62A    -10.161768    63A    -10.161635
      64A    -10.161485    65A     -1.141211    66A     -1.062981
      67A     -1.062849    68A     -1.062826    69A     -1.050848
      70A     -1.050833    71A     -0.975342    72A     -0.963919
      73A     -0.963901    74A     -0.938734    75A     -0.938721
      76A     -0.938672    77A     -0.902291    78A     -0.885208
      79A     -0.885173    80A     -0.884727    81A     -0.820280
      82A     -0.820052    83A     -0.819711    84A     -0.808900
      85A     -0.806966    86A     -0.806879    87A     -0.793675
      88A     -0.793200    89A     -0.792908    90A     -0.770707
      91A     -0.770662    92A     -0.769463    93A     -0.759438
      94A     -0.758462    95A     -0.758199    96A     -0.739811
      97A     -0.739030    98A     -0.738986    99A     -0.709107
     100A     -0.708972   101A     -0.707632   102A     -0.670566
     103A     -0.670504   104A     -0.663189   105A     -0.651615
     106A     -0.651581   107A     -0.646252   108A     -0.646217
     109A     -0.636810   110A     -0.628745   111A     -0.617637
     112A     -0.617515   113A     -0.606555   114A     -0.606310
     115A     -0.604213   116A     -0.601514   117A     -0.600862
     118A     -0.598180   119A     -0.585900   120A     -0.585833
     121A     -0.583136   122A     -0.582797   123A     -0.582750
     124A     -0.577263   125A     -0.577122   126A     -0.576962
     127A     -0.559044   128A     -0.557000   129A     -0.555774
     130A     -0.554096   131A     -0.553767   132A     -0.524830
     133A     -0.502094   134A     -0.501941   135A     -0.493315
     136A     -0.492374   137A     -0.492027   138A     -0.482382
     139A     -0.482266   140A     -0.481661   141A     -0.473407
     142A     -0.472937   143A     -0.472305   144A     -0.468444
     145A     -0.468214   146A     -0.467375   147A     -0.461450
     148A     -0.461344   149A     -0.456542   150A     -0.455116
     151A     -0.454884   152A     -0.444886   153A     -0.444546
     154A     -0.444076   155A     -0.440225   156A     -0.440086
     157A     -0.439898   158A     -0.435559   159A     -0.434420
     160A     -0.434123   161A     -0.428645   162A     -0.428421
     163A     -0.428368   164A     -0.418494   165A     -0.417416
     166A     -0.416094   167A     -0.414825   168A     -0.414372
     169A     -0.413697   170A     -0.409271   171A     -0.398732
     172A     -0.398544   173A     -0.395773   174A     -0.393695
     175A     -0.393515   176A     -0.392048   177A     -0.389592
     178A     -0.388597   179A     -0.383144   180A     -0.381650
     181A     -0.380915   182A     -0.371925   183A     -0.369825
     184A     -0.369581   185A     -0.365583   186A     -0.365248
     187A     -0.364831   188A     -0.363526   189A     -0.361422
     190A     -0.361322   191A     -0.357936   192A     -0.357099
     193A     -0.357016   194A     -0.356011   195A     -0.351852
     196A     -0.351716   197A     -0.340983   198A     -0.340778
     199A     -0.340415   200A     -0.339082   201A     -0.338825
     202A     -0.338637   203A     -0.338315   204A     -0.333121
     205A     -0.333078   206A     -0.329121   207A     -0.328931
     208A     -0.328574   209A     -0.325841   210A     -0.325667
     211A     -0.325425   212A     -0.323276   213A     -0.323115
     214A     -0.322885   215A     -0.304541   216A     -0.304461
     217A     -0.304434   218A     -0.278224   219A     -0.278153
     220A     -0.273554   221A     -0.272180   222A     -0.271601
     223A     -0.271571   224A     -0.270042   225A     -0.267211
     226A     -0.267025   227A     -0.253179   228A     -0.251823
     229A     -0.251566   230A     -0.251297   231A     -0.250915
     232A     -0.250824   233A     -0.248607

  @RKS Final Energy: -2755.71235557085811

   => Energetics <=

    Nuclear Repulsion Energy =           7510.1761792776524089
    One-Electron Energy =              -18679.9827217648962687
    Two-Electron Energy =                8735.6328466818558809
    DFT Exchange-Correlation Energy =    -321.5386597654710954
    Empirical Dispersion Energy =           0.0000000000000000
    VV10 Nonlocal Energy =                  0.0000000000000000
    Total Energy =                      -2755.7123555708590175

  Dipole Moment: [D]
     X:     1.0474      Y:    -0.0836      Z:    -0.0242     Total:     1.0510

*** Psi4 exiting successfully. Buy a developer a beer!
