                               Psi4 1.3.2 release

  ==> Input File <==

--------------------------------------------------------------------------
memory 8gb
molecule {
    symmetry c1 # this is important; some perturbations will break symmetry
#    no_reorient
N         0.67837695692501   -1.12553075238253   -0.75351316313868
C         0.69076487457325   -1.13302402016790    0.57633459963242
N         0.67260567310928    1.22086836115632   -0.65682280501564
C         0.64935588359467    0.13784642758504   -2.78983780738900
H         0.29471601990447   -1.86773440551920   -5.48904971795259
C         0.67692044571248    1.12004797568487    0.66890447780177
C         0.68222365779269   -2.42789482160004    1.25669809365942
H         0.91760113830125   -3.54920452637610   -0.54476403827043
C         0.67440674735975    0.07325617865018   -1.32854603334757
N         0.69244161019693   -0.03518269492719    1.32661445757312
C         0.60442680151043   -4.88703305551082    2.55472370980229
C         0.64362149236062    2.35569091540058    1.45125853259120
H        -0.68035277705181   -5.91413228739435  -17.11822418807566
C         0.47415009930391   -1.02355589086224   -3.54002953503832
C         0.47492929465219    0.40186254208986   -7.05439167097727
C         0.79576038269527    1.36251136883689   -3.43931433044230
H        -1.11152587611065   -6.68002871095919  -15.58837472261220
C         0.41254587978984   -0.95781152652674   -4.91739069111413
C         0.53605540094716    0.26854859327543   -5.56600892817356
C         0.74988164059265    1.42229462163138   -4.81616263876421
H         0.56517051767323   -6.23990853740806  -15.91183649695279
H         0.87333357940579    2.35955093088178   -5.33745965591045
C         0.71068458643471    3.48251778108562    3.57013507822051
C         0.77072688055817    2.31514529664950    2.83874889500269
H         0.38164677947796   -1.96633982212931   -3.02403951690872
C         0.45370291487781    3.57966535182779    0.81262013135526
H         0.91104736276469    1.36098021258213    3.32133744451240
H         0.33953063274946    3.59360585715002   -0.25995199098491
C         0.39854488128015    4.74634858932645    1.54773630170370
H         0.43079909318018   -3.73596164256816    4.36439790539394
C         0.43306421859068    5.93234078696430    3.78777938895172
C         0.53473929828947    4.70902075544317    2.93361538084709
H         0.79201222561624    3.47036304583502    4.64655833891127
C         0.79979888990050   -3.60883065278690    0.52559326833175
C         0.55278212081227   -2.48569503425950    2.64331896448245
H         0.48141173708015   -1.56281114962339    3.19710641322251
C         0.51029003411549   -3.70572859204108    3.28672988206528
C         0.77048411361705   -4.82601378579519    1.17344668340093
H         0.87159513360088   -5.75088518064041    0.62586641374766
C         0.56568608004828   -6.23550870963300    3.20054606650618
N        -0.29364140521660   -6.32972543958278    4.24160447145836
O         1.23139857989543   -7.17000840888847    2.80070465087931
C        -0.11882256211709   -7.32735839980108    6.48454438640327
H         0.19104457961401   -8.28664120718979    4.56598693456909
C        -0.46819922005534   -7.53833950044789    5.01145866011375
H        -1.50500960662541   -7.88359921149536    4.92208507725404
H        -0.84659891523411   -5.52940967014229    4.50306326868416
H         0.92137622862563   -7.00517711197139    6.56293437302730
H        -0.74845395681530   -6.53321156809437    6.89559986010118
C        -0.32428875875556   -8.60615606288218    7.29157388916726
H         0.31273547070356   -9.39385430920970    6.88451770065597
C        -0.00466835049999   -8.41087983066729    8.77166085491913
H        -1.36160552048056   -8.93376728325188    7.18807520058424
H         1.03611701496053   -8.09742909826299    8.87919557202680
H        -0.63304180465419   -7.61347798971352    9.17597944375297
C        -0.23408949719953   -9.68861032417246    9.57526818038335
H         0.39518097809215  -10.48554812052960    9.17237243498884
C         0.07685601433899   -9.50078494940863   11.05791335600594
H        -1.27471383705374  -10.00253319374328    9.46266563003929
H         1.12086534749753   -9.20000387517037   11.17301405017979
H        -0.54421583690581   -8.69569952380567   11.45818215269649
C        -0.17197389585863  -10.77443803582289   11.86226247477526
H         0.44911724786568  -11.57961450456197   11.46318798849251
C         0.13807441472171  -10.58132941539649   13.34148036548263
H        -1.21598888789697  -11.07493655369437   11.74670893959790
H         1.18060977594866  -10.30279585523278   13.47936019051316
H        -0.48400898650558   -9.79396900144758   13.76186229613738
H        -0.04828443081499  -11.49842928672689   13.89545956296594
O        -0.03528418874779    5.89875483837410    4.90910334436289
N         0.92094136599648    7.06256760750474    3.22611424834560
H         1.30539140972907    7.03001580616161    2.29607605777420
C         0.80180406185716    8.35747010194355    3.85378072998651
H         1.77871700737541    8.85160358288866    3.85722864936317
C        -0.23075945113550    9.23403971281323    3.14252094647761
H         0.49127735395052    8.17486686389101    4.88493635645147
H         0.07732826978733    9.39071841260244    2.10507129194798
H        -1.18778664336024    8.70820362072938    3.13247410259274
C        -0.39879378614049   10.58393410764433    3.83361628503207
H         0.55692617135305   11.11334894178203    3.83415975140428
C        -1.45626835777743   11.44473006406290    3.14657850828128
H        -0.68710761464080   10.42000106322476    4.87382974603021
H        -1.17014403251055   11.60845664701409    2.10473258293028
H        -2.40891813812136   10.91009376146078    3.14662822896108
C        -1.63794699202458   12.79412102405088    3.83709299359522
H        -0.69331406866977   13.34277450807736    3.81457961080633
C        -2.72667685514620   13.63269421761466    3.17219226539464
H        -1.89866379099149   12.63017639247007    4.88523873493645
H        -2.47245598824877   13.78716137553069    2.12071370389069
H        -3.67214540627658   13.08601356839778    3.20555491727298
C        -2.90698988670151   14.98865093514615    3.85006855860372
H        -1.96640426440130   15.54249837203784    3.80506176549341
C        -4.00973988668701   15.80808573695787    3.19107930064411
H        -3.14959460161542   14.83513401158219    4.90406536125711
H        -3.77943258049172   15.98391068970462    2.14241246568181
H        -4.96059038470799   15.28248906766273    3.24798684863659
H        -4.11990756576968   16.77095665159586    3.68443163164238
N        -0.43008261216824   -0.40902306137095   -7.64992994176059
C        -0.64855775936616   -0.42773383301277   -9.07684269614584
O         1.16129903974134    1.19562994667880   -7.66689627988361
H        -0.99904154989536   -1.01831710873157   -7.08454852520853
H         0.03309207912359    0.31174263795079   -9.50301339822568
C        -0.38083843909483   -1.80798454799291   -9.67618232368173
H        -1.67937618477457   -0.12333528922325   -9.29390107561915
H         0.65370123967883   -2.09177121383081   -9.47360338223474
H        -1.03155940764037   -2.54407094637150   -9.19585508493260
C        -0.63164002222688   -1.81431878915614  -11.18155629299631
H         0.02500402087749   -1.08346184485191  -11.65764681519531
C        -0.39135845580855   -3.18900725255412  -11.80061713688575
H        -1.66241806866690   -1.50783552662425  -11.37560909926182
H         0.64194057431829   -3.49251912151700  -11.61837973141905
H        -1.04113402434749   -3.92287031366755  -11.31750801251826
C        -0.66124552164814   -3.18968054166799  -13.30336707825633
H        -0.01292525003272   -2.45474771839464  -13.78605166996257
C        -0.42395920756203   -4.56091149801981  -13.93072071255968
H        -1.69505585612899   -2.88499481871300  -13.48371780048168
H         0.61261283569718   -4.86139908000590  -13.76070817884877
H        -1.06536115093580   -5.29805538603840  -13.44150773684126
C        -0.70920543854523   -4.56330178220888  -15.43061810604118
H        -0.06899228491327   -3.82588951198541  -15.92018445653556
C        -0.46938025835568   -5.93386416546403  -16.05155478852815
H        -1.74623764023627   -4.26442560929843  -15.60047481320847
H         0.94879726042656    2.25074152805466   -2.84711164773113
H         0.21443512272856    5.68217353839362    1.03881394885592

}

pert = 0.001
lambdas = [pert, -pert, 2.0*pert, -2.0*pert]

set {
    basis     6-31g
    d_convergence   8
    reference rhf
    scf_type direct
}
method = 'B3LYP'

perturbed_energies = np.zeros((len(lambdas),3))
x_perturbed_dipoles = np.zeros((len(lambdas),3))
y_perturbed_dipoles = np.zeros((len(lambdas),3))
z_perturbed_dipoles = np.zeros((len(lambdas),3))

# start with a reference dipole calculation
properties(method, properties=['dipole'])
mu_x = psi4.core.variable(method + ' DIPOLE X') / psi_dipmom_au2debye
mu_y = psi4.core.variable(method + ' DIPOLE Y') / psi_dipmom_au2debye
mu_z = psi4.core.variable(method + ' DIPOLE Z') / psi_dipmom_au2debye
analytic_dipole = np.array([mu_x, mu_y, mu_z])

# now compute with different applied fields
for step, l in enumerate(lambdas):
    set perturb_h true
    set perturb_with dipole
    # x pertubation
    set perturb_dipole [$l, 0, 0]
    perturbed_energies[step,0] = properties(method, properties=['dipole'])
    x_perturbed_dipoles[step,0] = psi4.core.variable(method + ' DIPOLE X')
    x_perturbed_dipoles[step,1] = psi4.core.variable(method + ' DIPOLE Y')
    x_perturbed_dipoles[step,2] = psi4.core.variable(method + ' DIPOLE Z')
    # y pertubation
    set perturb_dipole [0, $l, 0]
    perturbed_energies[step,1] = properties(method, properties=['dipole'])
    y_perturbed_dipoles[step,0] = psi4.core.variable(method + ' DIPOLE X')
    y_perturbed_dipoles[step,1] = psi4.core.variable(method + ' DIPOLE Y')
    y_perturbed_dipoles[step,2] = psi4.core.variable(method + ' DIPOLE Z')
    # z pertubation
    set perturb_dipole [0, 0, $l]
    perturbed_energies[step,2] = properties(method, properties=['dipole'])
    z_perturbed_dipoles[step,0] = psi4.core.variable(method + ' DIPOLE X')
    z_perturbed_dipoles[step,1] = psi4.core.variable(method + ' DIPOLE Y')
    z_perturbed_dipoles[step,2] = psi4.core.variable(method + ' DIPOLE Z')

# use 3- and 5-point finite difference formulae to compute the dipole
mu_3pt = (perturbed_energies[0] - perturbed_energies[1]) / (2.0*pert)
mu_5pt = (8.0*perturbed_energies[0] - 8.0*perturbed_energies[1] - perturbed_energies[2] + perturbed_energies[3]) / (12.0*pert)
# and the polarizability
a_x_3pt = (x_perturbed_dipoles[0] - x_perturbed_dipoles[1]) / (2.0*pert)
a_y_3pt = (y_perturbed_dipoles[0] - y_perturbed_dipoles[1]) / (2.0*pert)
a_z_3pt = (z_perturbed_dipoles[0] - z_perturbed_dipoles[1]) / (2.0*pert)
alpha_3pt = np.vstack((a_x_3pt, a_y_3pt, a_z_3pt))
a_x_5pt = (8.0*x_perturbed_dipoles[0] - 8.0*x_perturbed_dipoles[1] - x_perturbed_dipoles[2] + x_perturbed_dipoles[3]) / (12.0*pert)
a_y_5pt = (8.0*y_perturbed_dipoles[0] - 8.0*y_perturbed_dipoles[1] - y_perturbed_dipoles[2] + y_perturbed_dipoles[3]) / (12.0*pert)
a_z_5pt = (8.0*z_perturbed_dipoles[0] - 8.0*z_perturbed_dipoles[1] - z_perturbed_dipoles[2] + z_perturbed_dipoles[3]) / (12.0*pert)
alpha_5pt = np.vstack((a_x_5pt, a_y_5pt, a_z_5pt))

# let's see what happened!
np.set_printoptions(suppress=True)
print('Analytic dipole\n', analytic_dipole)
print('3point finite difference dipole\n', mu_3pt)
print('5point finite difference dipole\n', mu_5pt)

print('3point finite difference polarizability\n', alpha_3pt)
print('5point finite difference polarizability\n', alpha_5pt)
--------------------------------------------------------------------------

    Molecular point group: c1
  Charge       = 0
  Multiplicity = 1
  Basis Set: 6-31G
    Blend: 6-31G
  Basis Set: (6-31G AUX)
    Blend: CC-PVDZ-JKFIT
  @RKS Final Energy: -2422.51823727894316
    Total Energy =                      -2422.5182372789440706
    Molecular point group: c1
  Basis Set: 6-31G
    Blend: 6-31G
  Basis Set: (6-31G AUX)
    Blend: CC-PVDZ-JKFIT
  @RKS Final Energy: -2422.51980858264233
    Total Energy =                      -2422.5198085826418719
  Basis Set: 6-31G
    Blend: 6-31G
  Basis Set: (6-31G AUX)
    Blend: CC-PVDZ-JKFIT
  @RKS Final Energy: -2422.51838486101042
    Total Energy =                      -2422.5183848610099631
  Basis Set: 6-31G
    Blend: 6-31G
  Basis Set: (6-31G AUX)
    Blend: CC-PVDZ-JKFIT
  @RKS Final Energy: -2422.51875642036430
    Total Energy =                      -2422.5187564203647526
  @RKS Final Energy: -2422.51699460020745
    Total Energy =                      -2422.5169946002074539
  @RKS Final Energy: -2422.51882754053213
    Total Energy =                      -2422.5188275405325840
  @RKS Final Energy: -2422.51846349603147
    Total Energy =                      -2422.5184634960314725
  @RKS Final Energy: -2422.52170850620450
    Total Energy =                      -2422.5217085062040496
  @RKS Final Energy: -2422.51927032323920
    Total Energy =                      -2422.5192703232387430
  Basis Set: 6-31G
    Blend: 6-31G
  Basis Set: (6-31G AUX)
    Blend: CC-PVDZ-JKFIT
  @RKS Final Energy: -2422.52002369934416
    Total Energy =                      -2422.5200236993441649
  Basis Set: 6-31G
    Blend: 6-31G
  Basis Set: (6-31G AUX)
    Blend: CC-PVDZ-JKFIT
  @RKS Final Energy: -2422.51608055901806
    Total Energy =                      -2422.5160805590176096
  Multiplicity = 1
  Basis Set: 6-31G
    Blend: 6-31G
  Basis Set: (6-31G AUX)
    Blend: CC-PVDZ-JKFIT
  @RKS Final Energy: -2422.52015647725784
    Total Energy =                      -2422.5201564772578422
    Molecular point group: c1

    Geometry (in Angstrom), charge = 0, multiplicity = 1:

       Center              X                  Y                   Z               Mass
    ------------   -----------------  -----------------  -----------------  -----------------
         N            0.686222871631    -1.121190355680    -0.757322264276    14.003074004430
         C            0.698610789280    -1.128683623466     0.572525498495    12.000000000000
         N            0.680451587816     1.225208757858    -0.660631906153    14.003074004430
         C            0.657201798301     0.142186824287    -2.793646908527    12.000000000000
         H            0.302561934611    -1.863394008817    -5.492858819090     1.007825032230
         C            0.684766360419     1.124388372387     0.665095376664    12.000000000000
         C            0.690069572499    -2.423554424898     1.252888992522    12.000000000000
         H            0.925447053008    -3.544864129674    -0.548573139408     1.007825032230
         C            0.682252662066     0.077596575352    -1.332355134485    12.000000000000
         N            0.700287524903    -0.030842298225     1.322805356436    14.003074004430
         C            0.612272716217    -4.882692658809     2.550914608665    12.000000000000
         C            0.651467407067     2.360031312103     1.447449431454    12.000000000000
         H           -0.672506862345    -5.909791890692   -17.122033289213     1.007825032230
         C            0.481996014010    -1.019215494160    -3.543838636176    12.000000000000
         C            0.482775209359     0.406202938792    -7.058200772115    12.000000000000
         C            0.803606297402     1.366851765539    -3.443123431580    12.000000000000
         H           -1.103679961404    -6.675688314257   -15.592183823750     1.007825032230
         C            0.420391794496    -0.953471129825    -4.921199792252    12.000000000000
         C            0.543901315653     0.272888989978    -5.569818029311    12.000000000000
         C            0.757727555299     1.426635018333    -4.819971739902    12.000000000000
         H            0.573016432380    -6.235568140706   -15.915645598090     1.007825032230
         H            0.881179494112     2.363891327584    -5.341268757048     1.007825032230
         C            0.718530501141     3.486858177788     3.566325977083    12.000000000000
         C            0.778572795264     2.319485693352     2.834939793865    12.000000000000
         H            0.389492694184    -1.961999425427    -3.027848618046     1.007825032230
         C            0.461548829584     3.584005748530     0.808811030218    12.000000000000
         H            0.918893277471     1.365320609284     3.317528343375     1.007825032230
         H            0.347376547456     3.597946253852    -0.263761092122     1.007825032230
         C            0.406390795986     4.750688986029     1.543927200566    12.000000000000
         H            0.438645007886    -3.731621245866     4.360588804256     1.007825032230
         C            0.440910133297     5.936681183666     3.783970287814    12.000000000000
         C            0.542585212996     4.713361152145     2.929806279710    12.000000000000
         H            0.799858140323     3.474703442537     4.642749237774     1.007825032230
         C            0.807644804607    -3.604490256085     0.521784167194    12.000000000000
         C            0.560628035519    -2.481354637557     2.639509863345    12.000000000000
         H            0.489257651786    -1.558470752921     3.193297312085     1.007825032230
         C            0.518135948822    -3.701388195339     3.282920780928    12.000000000000
         C            0.778330028323    -4.821673389093     1.169637582263    12.000000000000
         H            0.879441048307    -5.746544783938     0.622057312610     1.007825032230
         C            0.573531994755    -6.231168312931     3.196736965369    12.000000000000
         N           -0.285795490510    -6.325385042881     4.237795370321    14.003074004430
         O            1.239244494602    -7.165668012186     2.796895549742    15.994914619570
         C           -0.110976647411    -7.323018003099     6.480735285266    12.000000000000
         H            0.198890494320    -8.282300810488     4.562177833432     1.007825032230
         C           -0.460353305349    -7.533999103746     5.007649558976    12.000000000000
         H           -1.497163691919    -7.879258814793     4.918275976117     1.007825032230
         H           -0.838753000528    -5.525069273440     4.499254167547     1.007825032230
         H            0.929222143332    -7.000836715269     6.559125271890     1.007825032230
         H           -0.740608042109    -6.528871171392     6.891790758964     1.007825032230
         C           -0.316442844049    -8.601815666180     7.287764788030    12.000000000000
         H            0.320581385410    -9.389513912508     6.880708599518     1.007825032230
         C            0.003177564206    -8.406539433965     8.767851753782    12.000000000000
         H           -1.353759605774    -8.929426886550     7.184266099447     1.007825032230
         H            1.043962929667    -8.093088701561     8.875386470889     1.007825032230
         H           -0.625195889948    -7.609137593011     9.172170342615     1.007825032230
         C           -0.226243582493    -9.684269927470     9.571459079246    12.000000000000
         H            0.403026892798   -10.481207723828     9.168563333851     1.007825032230
         C            0.084701929045    -9.496444552707    11.054104254868    12.000000000000
         H           -1.266867922347    -9.998192797041     9.458856528902     1.007825032230
         H            1.128711262204    -9.195663478468    11.169204949042     1.007825032230
         H           -0.536369922199    -8.691359127104    11.454373051559     1.007825032230
         C           -0.164127981152   -10.770097639121    11.858453373638    12.000000000000
         H            0.456963162572   -11.575274107860    11.459378887355     1.007825032230
         C            0.145920329428   -10.576989018694    13.337671264345    12.000000000000
         H           -1.208142973191   -11.070596156992    11.742899838460     1.007825032230
         H            1.188455690655   -10.298455458531    13.475551089376     1.007825032230
         H           -0.476163071799    -9.789628604745    13.758053195000     1.007825032230
         H           -0.040438516109   -11.494088890025    13.891650461828     1.007825032230
         O           -0.027438274041     5.903095235076     4.905294243225    15.994914619570
         N            0.928787280703     7.066908004207     3.222305147208    14.003074004430
         H            1.313237324435     7.034356202864     2.292266956637     1.007825032230
         C            0.809649976563     8.361810498646     3.849971628849    12.000000000000
         H            1.786562922082     8.855943979591     3.853419548226     1.007825032230
         C           -0.222913536429     9.238380109515     3.138711845340    12.000000000000
         H            0.499123268657     8.179207260593     4.881127255314     1.007825032230
         H            0.085174184494     9.395058809305     2.101262190810     1.007825032230
         H           -1.179940728654     8.712544017431     3.128665001455     1.007825032230
         C           -0.390947871434    10.588274504346     3.829807183895    12.000000000000
         H            0.564772086059    11.117689338484     3.830350650267     1.007825032230
         C           -1.448422443071    11.449070460765     3.142769407144    12.000000000000
         H           -0.679261699934    10.424341459927     4.870020644893     1.007825032230
         H           -1.162298117804    11.612797043716     2.100923481793     1.007825032230
         H           -2.401072223415    10.914434158163     3.142819127824     1.007825032230
         C           -1.630101077318    12.798461420753     3.833283892458    12.000000000000
         H           -0.685468153963    13.347114904779     3.810770509669     1.007825032230
         C           -2.718830940440    13.637034614317     3.168383164257    12.000000000000
         H           -1.890817876285    12.634516789172     4.881429633799     1.007825032230
         H           -2.464610073542    13.791501772233     2.116904602753     1.007825032230
         H           -3.664299491570    13.090353965100     3.201745816135     1.007825032230
         C           -2.899143971995    14.992991331848     3.846259457466    12.000000000000
         H           -1.958558349695    15.546838768740     3.801252664356     1.007825032230
         C           -4.001893971981    15.812426133660     3.187270199507    12.000000000000
         H           -3.141748686909    14.839474408284     4.900256260120     1.007825032230
         H           -3.771586665785    15.988251086407     2.138603364544     1.007825032230
         H           -4.952744470002    15.286829464365     3.244177747499     1.007825032230
         H           -4.112061651063    16.775297048298     3.680622530505     1.007825032230
         N           -0.422236697462    -0.404682664669    -7.653739042898    14.003074004430
         C           -0.640711844660    -0.423393436311    -9.080651797283    12.000000000000
         O            1.169144954448     1.199970343381    -7.670705381021    15.994914619570
         H           -0.991195635189    -1.013976712029    -7.088357626346     1.007825032230
         H            0.040937993830     0.316083034653    -9.506822499363     1.007825032230
         C           -0.372992524389    -1.803644151291    -9.679991424819    12.000000000000
         H           -1.671530270068    -0.118994892521    -9.297710176757     1.007825032230
         H            0.661547154385    -2.087430817129    -9.477412483372     1.007825032230
         H           -1.023713492934    -2.539730549669    -9.199664186070     1.007825032230
         C           -0.623794107521    -1.809978392454   -11.185365394134    12.000000000000
         H            0.032849935584    -1.079121448150   -11.661455916333     1.007825032230
         C           -0.383512541102    -3.184666855852   -11.804426238023    12.000000000000
         H           -1.654572153961    -1.503495129922   -11.379418200399     1.007825032230
         H            0.649786489025    -3.488178724815   -11.622188832557     1.007825032230
         H           -1.033288109641    -3.918529916965   -11.321317113656     1.007825032230
         C           -0.653399606942    -3.185340144966   -13.307176179394    12.000000000000
         H           -0.005079335326    -2.450407321693   -13.789860771100     1.007825032230
         C           -0.416113292856    -4.556571101318   -13.934529813697    12.000000000000
         H           -1.687209941423    -2.880654422011   -13.487526901619     1.007825032230
         H            0.620458750403    -4.857058683304   -13.764517279986     1.007825032230
         H           -1.057515236229    -5.293714989336   -13.445316837979     1.007825032230
         C           -0.701359523839    -4.558961385507   -15.434427207179    12.000000000000
         H           -0.061146370207    -3.821549115283   -15.923993557673     1.007825032230
         C           -0.461534343649    -5.929523768762   -16.055363889666    12.000000000000
         H           -1.738391725530    -4.260085212596   -15.604283914346     1.007825032230
         H            0.956643175133     2.255081924757    -2.850920748869     1.007825032230
         H            0.222281037435     5.686513935096     1.035004847718     1.007825032230

  Charge       = 0
  Multiplicity = 1
  Basis Set: 6-31G
    Blend: 6-31G
  Basis Set: (6-31G AUX)
    Blend: CC-PVDZ-JKFIT

    Orbital Energies [Eh]
    ---------------------

    Doubly Occupied:

       1A    -19.133738     2A    -19.100273     3A    -19.099797
       4A    -14.380603     5A    -14.354155     6A    -14.353910
       7A    -14.351970     8A    -14.346265     9A    -14.343416
      10A    -10.312443    11A    -10.289875    12A    -10.286472
      13A    -10.286393    14A    -10.280098    15A    -10.279269
      16A    -10.244360    17A    -10.224897    18A    -10.221891
      19A    -10.219335    20A    -10.218843    21A    -10.217215
      22A    -10.217040    23A    -10.215937    24A    -10.215328
      25A    -10.214985    26A    -10.214295    27A    -10.209284
      28A    -10.208294    29A    -10.206720    30A    -10.201785
      31A    -10.201748    32A    -10.201553    33A    -10.201026
      34A    -10.200749    35A    -10.196935    36A    -10.196270
      37A    -10.193998    38A    -10.193823    39A    -10.191669
      40A    -10.191623    41A    -10.189464    42A    -10.188911
      43A    -10.186370    44A    -10.168441    45A    -10.162610
      46A    -10.160446    47A    -10.158142    48A    -10.156320
      49A    -10.156157    50A    -10.156076    51A    -10.149907
      52A    -10.149750    53A    -10.141355    54A    -10.135082
      55A    -10.129018    56A    -10.127310    57A    -10.114631
      58A     -1.083100    59A     -1.069682    60A     -1.049598
      61A     -1.048927    62A     -0.961341    63A     -0.943857
      64A     -0.943299    65A     -0.926377    66A     -0.923419
      67A     -0.892429    68A     -0.874652    69A     -0.874072
      70A     -0.864310    71A     -0.839917    72A     -0.810498
      73A     -0.807260    74A     -0.796352    75A     -0.795067
      76A     -0.790934    77A     -0.784529    78A     -0.779357
      79A     -0.777901    80A     -0.762343    81A     -0.761191
      82A     -0.759481    83A     -0.751947    84A     -0.743860
      85A     -0.727268    86A     -0.716721    87A     -0.709433
      88A     -0.697838    89A     -0.691600    90A     -0.678727
      91A     -0.661005    92A     -0.650051    93A     -0.646445
      94A     -0.638042    95A     -0.632697    96A     -0.629352
      97A     -0.627584    98A     -0.626073    99A     -0.619696
     100A     -0.617330   101A     -0.606997   102A     -0.602611
     103A     -0.591398   104A     -0.585896   105A     -0.582674
     106A     -0.574929   107A     -0.570816   108A     -0.570575
     109A     -0.570249   110A     -0.564538   111A     -0.555882
     112A     -0.552387   113A     -0.544323   114A     -0.538678
     115A     -0.537351   116A     -0.534507   117A     -0.517295
     118A     -0.508874   119A     -0.499135   120A     -0.493192
     121A     -0.487467   122A     -0.485514   123A     -0.482699
     124A     -0.480554   125A     -0.477939   126A     -0.472653
     127A     -0.472403   128A     -0.469076   129A     -0.465932
     130A     -0.463153   131A     -0.460936   132A     -0.458090
     133A     -0.457150   134A     -0.453950   135A     -0.450731
     136A     -0.449208   137A     -0.443770   138A     -0.442707
     139A     -0.439184   140A     -0.433703   141A     -0.432680
     142A     -0.429844   143A     -0.428953   144A     -0.427803
     145A     -0.422555   146A     -0.419432   147A     -0.416556
     148A     -0.415530   149A     -0.410653   150A     -0.409458
     151A     -0.404696   152A     -0.404126   153A     -0.402231
     154A     -0.399086   155A     -0.396186   156A     -0.395356
     157A     -0.392569   158A     -0.389328   159A     -0.387281
     160A     -0.384022   161A     -0.383590   162A     -0.382858
     163A     -0.379988   164A     -0.374151   165A     -0.373873
     166A     -0.372470   167A     -0.370950   168A     -0.370176
     169A     -0.369644   170A     -0.369474   171A     -0.367448
     172A     -0.365103   173A     -0.360524   174A     -0.357428
     175A     -0.353020   176A     -0.351504   177A     -0.349737
     178A     -0.348904   179A     -0.346937   180A     -0.345327
     181A     -0.340065   182A     -0.334671   183A     -0.333024
     184A     -0.328509   185A     -0.328080   186A     -0.325953
     187A     -0.316230   188A     -0.313000   189A     -0.311505
     190A     -0.310379   191A     -0.305663   192A     -0.295649
     193A     -0.292021   194A     -0.286930   195A     -0.283227
     196A     -0.282654   197A     -0.281102   198A     -0.273880
     199A     -0.271069   200A     -0.268817   201A     -0.268467
     202A     -0.265926   203A     -0.262901   204A     -0.262358
     205A     -0.257370   206A     -0.256739   207A     -0.239085
     208A     -0.239013   209A     -0.238507   210A     -0.234567

  @RKS Final Energy: -2422.51943316449615

   => Energetics <=

    Nuclear Repulsion Energy =           6343.0616452406802637
    One-Electron Energy =              -15902.7819238344000041
    Two-Electron Energy =                7423.0897876403787450
    DFT Exchange-Correlation Energy =    -285.8889422111562908
    Empirical Dispersion Energy =           0.0000000000000000
    VV10 Nonlocal Energy =                  0.0000000000000000
    Total Energy =                      -2422.5194331644961494

  Dipole Moment: [D]
     X:    -3.5884      Y:     0.5553      Z:     3.4084     Total:     4.9802

*** Psi4 exiting successfully. Buy a developer a beer!
