                               Psi4 1.3.2 release

  ==> Input File <==

--------------------------------------------------------------------------
memory 8gb
molecule {
    symmetry c1 # this is important; some perturbations will break symmetry
#    no_reorient
N         0.30010934722077   -1.08909228609414   -0.77538587070912
C         0.39809668176576   -1.10111982598521    0.55046392252805
N         0.25340875631654    1.25588544041294   -0.66600248773838
C         0.17197112844681    0.17978721522183   -2.80220237621829
H         0.63740508983203   -1.78162612255957   -5.51041503235503
C         0.36799395842296    1.15061832287346    0.65462764111592
C         0.44936248439494   -2.40059047159736    1.22053274956984
H        -0.12245404497335   -3.48990315852234   -0.52526657454533
C         0.24294138646578    0.11192357185343   -1.34270122551716
N         0.45244036274910   -0.00699179082606    1.30376015744378
C         0.53477572349875   -4.87004971114732    2.50407730179839
C         0.39877918146425    2.38478552407498    1.43923032427150
H        -0.84753689999537    6.85195752693376    2.41046278058315
C         0.43000515201520   -0.95682041721467   -3.56594982403780
C         0.05029060197657    0.47382853203821   -7.06352299032470
C        -0.12409306898102    1.38464006076532   -3.43764585925807
C        -0.21640665031764   -0.68886671274487  -10.30923680591266
C         0.38963910800664   -0.89444376571769   -4.94415923003425
C         0.08046395880189    0.30604377923192   -5.58260810758546
C        -0.16741276724675    1.44323949771994   -4.81362580334182
C        -0.22609567409238   -0.72338317735245   -9.10259736098191
H        -0.38660242333386    2.36769522619508   -5.32646936827313
C         0.49224015048435    3.50215200273422    3.56231905716415
C         0.47400992949923    2.33402745305518    2.83046289960279
H         0.67602808831131   -1.87772685681472   -3.06069125625432
C         0.35991519000291    3.62058700385785    0.79544854552846
H         0.51648566845400    1.37178627466412    3.31535402467003
H         0.32812328553213    3.64413453383814   -0.28236999180663
C         0.36569311873200    4.78836073674383    1.53038124636712
H         1.17980443904448   -3.74301175534943    4.23153816867947
C         0.42545081990894    5.96025183284436    3.77694610412110
C         0.41766162520415    4.73832773226059    2.92263852299846
H         0.55875838767453    3.48422200244667    4.63973261351650
C         0.14711842765592   -3.56514404723225    0.51632691773629
C         0.80995569801808   -2.48172164376057    2.56400322301124
H         1.06102999974810   -1.57459684273802    3.09094401300772
C         0.85700751738850   -3.70563585164028    3.20021149813383
C         0.19195886866678   -4.78559797114992    1.15468302825400
H        -0.03413062929488   -5.70010347483994    0.62720845809634
C         0.57753342803288   -6.23272485554939    3.10721978346899
N         0.38462243705694   -6.25763492891439    4.46732243547408
O         0.75446557412998   -7.23783182434131    2.45352068904595
C         0.45877922664204   -8.44036460307159    5.77423494511722
C        -2.42146442427703   12.24583414894292    4.42384643355952
C         0.41123935299162   -7.38853918290529    5.18381917457050
H        -0.31135278382811  -10.07124049709882   12.21495161979955
H        -0.31468110200736    2.25927821895094   -2.83630874117023
H         0.36435250473334    5.73699872820537    1.01128031666518
C         0.51520149696874   -9.64313818210389    6.48619566006539
H        -1.23543574069262   -5.37626083582205  -14.97091867364659
C         0.52161780589797   -9.71385907853191    7.80309384845852
C        -3.25484720739180   13.14426268505347    4.07612776537171
C         0.53607046555366   -9.79777287858857    9.06432520643007
C         0.56285788051628   -9.88992273379591   10.33448615243845
C        -0.29517291051540   -3.87150195158473  -13.88229461854123
O         0.22475362922611    1.54270915609376   -7.60791550513623
C        -0.27710127983985   -2.82595239310329  -13.15497767500343
O         1.01144640177909    6.03221019528179    4.83417561268523
N        -0.32087212404381    6.99327472249740    3.26193388592694
H         0.17759444652455   -5.40258787841455    4.96473652501546
C        -0.47562637680106    8.16934846840469    3.88309747703563
N        -0.20091220400652   -0.68068655911094   -7.76451975349111
C        -0.58188713465325    9.21054519776502    4.48464807216880
C        -0.24686742994604   -1.78378157092829  -12.44028452087846
C        -0.20520283758192   -0.68779135591523  -11.70794052285017
C        -0.73559899299357   10.42975037522137    5.15321365344489
H        -0.40501592262128   -1.53922336482007   -7.27209562043697
C        -1.59536367437055   11.35716810521158    4.77850567276404
H        -0.10350931410555   10.58604423397099    6.01977982208280
C         0.59224718185370   -9.98422271820031   11.63168297443853
H        -0.15131988463736    0.28500832295746  -12.18365611604646
C        -0.31137753796049   -4.93914611081047  -14.62545287137469
H         0.59995375773354   -5.43212638119150  -14.92708514888230
H         1.52271139633982   -9.97978213785412   12.17830257489252
C        -4.10764002815240   14.05991923907170    3.72014765843474
H        -3.84307999810863   14.84175146662270    3.02510949670160
H        -5.11543005776530   14.07558033419141    4.10564141316522
H         0.56087608790743  -10.54836667384373    5.89113443491940

}

pert = 0.001
lambdas = [pert, -pert, 2.0*pert, -2.0*pert]

set {
    basis     6-31g
    d_convergence   8
    reference rhf
    scf_type direct
}
method = 'B3LYP'

perturbed_energies = np.zeros((len(lambdas),3))
x_perturbed_dipoles = np.zeros((len(lambdas),3))
y_perturbed_dipoles = np.zeros((len(lambdas),3))
z_perturbed_dipoles = np.zeros((len(lambdas),3))

# start with a reference dipole calculation
properties(method, properties=['dipole'])
mu_x = psi4.core.variable(method + ' DIPOLE X') / psi_dipmom_au2debye
mu_y = psi4.core.variable(method + ' DIPOLE Y') / psi_dipmom_au2debye
mu_z = psi4.core.variable(method + ' DIPOLE Z') / psi_dipmom_au2debye
analytic_dipole = np.array([mu_x, mu_y, mu_z])

# now compute with different applied fields
for step, l in enumerate(lambdas):
    set perturb_h true
    set perturb_with dipole
    # x pertubation
    set perturb_dipole [$l, 0, 0]
    perturbed_energies[step,0] = properties(method, properties=['dipole'])
    x_perturbed_dipoles[step,0] = psi4.core.variable(method + ' DIPOLE X')
    x_perturbed_dipoles[step,1] = psi4.core.variable(method + ' DIPOLE Y')
    x_perturbed_dipoles[step,2] = psi4.core.variable(method + ' DIPOLE Z')
    # y pertubation
    set perturb_dipole [0, $l, 0]
    perturbed_energies[step,1] = properties(method, properties=['dipole'])
    y_perturbed_dipoles[step,0] = psi4.core.variable(method + ' DIPOLE X')
    y_perturbed_dipoles[step,1] = psi4.core.variable(method + ' DIPOLE Y')
    y_perturbed_dipoles[step,2] = psi4.core.variable(method + ' DIPOLE Z')
    # z pertubation
    set perturb_dipole [0, 0, $l]
    perturbed_energies[step,2] = properties(method, properties=['dipole'])
    z_perturbed_dipoles[step,0] = psi4.core.variable(method + ' DIPOLE X')
    z_perturbed_dipoles[step,1] = psi4.core.variable(method + ' DIPOLE Y')
    z_perturbed_dipoles[step,2] = psi4.core.variable(method + ' DIPOLE Z')

# use 3- and 5-point finite difference formulae to compute the dipole
mu_3pt = (perturbed_energies[0] - perturbed_energies[1]) / (2.0*pert)
mu_5pt = (8.0*perturbed_energies[0] - 8.0*perturbed_energies[1] - perturbed_energies[2] + perturbed_energies[3]) / (12.0*pert)
# and the polarizability
a_x_3pt = (x_perturbed_dipoles[0] - x_perturbed_dipoles[1]) / (2.0*pert)
a_y_3pt = (y_perturbed_dipoles[0] - y_perturbed_dipoles[1]) / (2.0*pert)
a_z_3pt = (z_perturbed_dipoles[0] - z_perturbed_dipoles[1]) / (2.0*pert)
alpha_3pt = np.vstack((a_x_3pt, a_y_3pt, a_z_3pt))
a_x_5pt = (8.0*x_perturbed_dipoles[0] - 8.0*x_perturbed_dipoles[1] - x_perturbed_dipoles[2] + x_perturbed_dipoles[3]) / (12.0*pert)
a_y_5pt = (8.0*y_perturbed_dipoles[0] - 8.0*y_perturbed_dipoles[1] - y_perturbed_dipoles[2] + y_perturbed_dipoles[3]) / (12.0*pert)
a_z_5pt = (8.0*z_perturbed_dipoles[0] - 8.0*z_perturbed_dipoles[1] - z_perturbed_dipoles[2] + z_perturbed_dipoles[3]) / (12.0*pert)
alpha_5pt = np.vstack((a_x_5pt, a_y_5pt, a_z_5pt))

# let's see what happened!
np.set_printoptions(suppress=True)
print('Analytic dipole\n', analytic_dipole)
print('3point finite difference dipole\n', mu_3pt)
print('5point finite difference dipole\n', mu_5pt)

print('3point finite difference polarizability\n', alpha_3pt)
print('5point finite difference polarizability\n', alpha_5pt)
--------------------------------------------------------------------------

    Molecular point group: c1
  Charge       = 0
  Multiplicity = 1
  Basis Set: 6-31G
    Blend: 6-31G
  Basis Set: (6-31G AUX)
    Blend: CC-PVDZ-JKFIT
  @RKS Final Energy: -2282.29682721295194
    Total Energy =                      -2282.2968272129514844
    Molecular point group: c1
  Basis Set: 6-31G
    Blend: 6-31G
  Basis Set: (6-31G AUX)
    Blend: CC-PVDZ-JKFIT
  @RKS Final Energy: -2282.29817973758236
    Total Energy =                      -2282.2981797375832684
  Basis Set: 6-31G
    Blend: 6-31G
  Basis Set: (6-31G AUX)
    Blend: CC-PVDZ-JKFIT
  @RKS Final Energy: -2282.29749380137764
    Total Energy =                      -2282.2974938013771862
  Basis Set: 6-31G
    Blend: 6-31G
  Basis Set: (6-31G AUX)
    Blend: CC-PVDZ-JKFIT
  @RKS Final Energy: -2282.29718276392714
    Total Energy =                      -2282.2971827639266849
  @RKS Final Energy: -2282.29572338196294
    Total Energy =                      -2282.2957233819629437
  @RKS Final Energy: -2282.29716747992552
    Total Energy =                      -2282.2971674799255197
  @RKS Final Energy: -2282.29755181638848
    Total Energy =                      -2282.2975518163884772
  @RKS Final Energy: -2282.29978102022142
    Total Energy =                      -2282.2997810202209621
  @RKS Final Energy: -2282.29916596227940
    Total Energy =                      -2282.2991659622803127
  Basis Set: 6-31G
    Blend: 6-31G
  Basis Set: (6-31G AUX)
    Blend: CC-PVDZ-JKFIT
  @RKS Final Energy: -2282.29863425198982
    Total Energy =                      -2282.2986342519893697
  Basis Set: 6-31G
    Blend: 6-31G
  Basis Set: (6-31G AUX)
    Blend: CC-PVDZ-JKFIT
  @RKS Final Energy: -2282.29486820813099
    Total Energy =                      -2282.2948682081309926
  Multiplicity = 1
  Basis Set: 6-31G
    Blend: 6-31G
  Basis Set: (6-31G AUX)
    Blend: CC-PVDZ-JKFIT
  @RKS Final Energy: -2282.29852553888804
    Total Energy =                      -2282.2985255388880432
    Molecular point group: c1

    Geometry (in Angstrom), charge = 0, multiplicity = 1:

       Center              X                  Y                   Z               Mass
    ------------   -----------------  -----------------  -----------------  -----------------
         N            0.295589209897    -1.093198365118    -0.771817999797    14.003074004430
         C            0.393576544442    -1.105225905009     0.554031793441    12.000000000000
         N            0.248888618993     1.251779361389    -0.662434616826    14.003074004430
         C            0.167450991123     0.175681136198    -2.798634505306    12.000000000000
         H            0.632884952508    -1.785732201583    -5.506847161442     1.007825032230
         C            0.363473821099     1.146512243850     0.658195512029    12.000000000000
         C            0.444842347071    -2.404696550621     1.224100620482    12.000000000000
         H           -0.126974182297    -3.494009237546    -0.521698703633     1.007825032230
         C            0.238421249142     0.107817492830    -1.339133354605    12.000000000000
         N            0.447920225425    -0.011097869850     1.307328028356    14.003074004430
         C            0.530255586175    -4.874155790171     2.507645172711    12.000000000000
         C            0.394259044140     2.380679445051     1.442798195184    12.000000000000
         H           -0.852057037319     6.847851447910     2.414030651496     1.007825032230
         C            0.425485014691    -0.960926496238    -3.562381953125    12.000000000000
         C            0.045770464653     0.469722453014    -7.059955119412    12.000000000000
         C           -0.128613206305     1.380533981742    -3.434077988345    12.000000000000
         C           -0.220926787642    -0.692972791769   -10.305668935000    12.000000000000
         C            0.385118970683    -0.898549844741    -4.940591359122    12.000000000000
         C            0.075943821478     0.301937700208    -5.579040236673    12.000000000000
         C           -0.171932904571     1.439133418696    -4.810057932429    12.000000000000
         C           -0.230615811416    -0.727489256376    -9.099029490069    12.000000000000
         H           -0.391122560658     2.363589147171    -5.322901497361     1.007825032230
         C            0.487720013160     3.498045923710     3.565886928077    12.000000000000
         C            0.469489792175     2.329921374031     2.834030770515    12.000000000000
         H            0.671507950987    -1.881832935838    -3.057123385342     1.007825032230
         C            0.355395052679     3.616480924834     0.799016416441    12.000000000000
         H            0.511965531130     1.367680195640     3.318921895583     1.007825032230
         H            0.323603148208     3.640028454814    -0.278802120894     1.007825032230
         C            0.361172981408     4.784254657720     1.533949117280    12.000000000000
         H            1.175284301721    -3.747117834373     4.235106039592     1.007825032230
         C            0.420930682585     5.956145753821     3.780513975034    12.000000000000
         C            0.413141487880     4.734221653237     2.926206393911    12.000000000000
         H            0.554238250351     3.480115923423     4.643300484429     1.007825032230
         C            0.142598290332    -3.569250126256     0.519894788649    12.000000000000
         C            0.805435560694    -2.485827722784     2.567571093924    12.000000000000
         H            1.056509862424    -1.578702921762     3.094511883920     1.007825032230
         C            0.852487380065    -3.709741930664     3.203779369046    12.000000000000
         C            0.187438731343    -4.789704050174     1.158250899167    12.000000000000
         H           -0.038650766619    -5.704209553864     0.630776329009     1.007825032230
         C            0.573013290709    -6.236830934573     3.110787654382    12.000000000000
         N            0.380102299733    -6.261741007938     4.470890306387    14.003074004430
         O            0.749945436806    -7.241937903365     2.457088559959    15.994914619570
         C            0.454259089318    -8.444470682095     5.777802816030    12.000000000000
         C           -2.425984561601    12.241728069919     4.427414304472    12.000000000000
         C            0.406719215668    -7.392645261929     5.187387045483    12.000000000000
         H           -0.315872921152   -10.075346576123    12.218519490712     1.007825032230
         H           -0.319201239331     2.255172139927    -2.832740870258     1.007825032230
         H            0.359832367409     5.732892649182     1.014848187578     1.007825032230
         C            0.510681359645    -9.647244261128     6.489763530978    12.000000000000
         H           -1.239955878017    -5.380366914846   -14.967350802734     1.007825032230
         C            0.517097668574    -9.717965157556     7.806661719371    12.000000000000
         C           -3.259367344716    13.140156606030     4.079695636284    12.000000000000
         C            0.531550328230    -9.801878957612     9.067893077343    12.000000000000
         C            0.558337743192    -9.894028812820    10.338054023351    12.000000000000
         C           -0.299693047839    -3.875608030608   -13.878726747629    12.000000000000
         O            0.220233491902     1.538603077070    -7.604347634224    15.994914619570
         C           -0.281621417164    -2.830058472127   -13.151409804091    12.000000000000
         O            1.006926264455     6.028104116258     4.837743483598    15.994914619570
         N           -0.325392261368     6.989168643474     3.265501756840    14.003074004430
         H            0.173074309201    -5.406693957438     4.968304395928     1.007825032230
         C           -0.480146514125     8.165242389381     3.886665347948    12.000000000000
         N           -0.205432341330    -0.684792638135    -7.760951882578    14.003074004430
         C           -0.586407271977     9.206439118741     4.488215943081    12.000000000000
         C           -0.251387567270    -1.787887649952   -12.436716649966    12.000000000000
         C           -0.209722974906    -0.691897434939   -11.704372651938    12.000000000000
         C           -0.740119130318    10.425644296198     5.156781524358    12.000000000000
         H           -0.409536059945    -1.543329443844    -7.268527749524     1.007825032230
         C           -1.599883811695    11.353062026188     4.782073543677    12.000000000000
         H           -0.108029451430    10.581938154947     6.023347692995     1.007825032230
         C            0.587727044530    -9.988328797224    11.635250845351    12.000000000000
         H           -0.155840021961     0.280902243934   -12.180088245134     1.007825032230
         C           -0.315897675284    -4.943252189834   -14.621885000462    12.000000000000
         H            0.595433620410    -5.436232460215   -14.923517277970     1.007825032230
         H            1.518191259016    -9.983888216878    12.181870445805     1.007825032230
         C           -4.112160165476    14.055813160048     3.723715529347    12.000000000000
         H           -3.847600135433    14.837645387599     3.028677367614     1.007825032230
         H           -5.119950195089    14.071474255168     4.109209284078     1.007825032230
         H            0.556355950583   -10.552472752867     5.894702305832     1.007825032230

  Charge       = 0
  Multiplicity = 1
  Basis Set: 6-31G
    Blend: 6-31G
  Basis Set: (6-31G AUX)
    Blend: CC-PVDZ-JKFIT

    Orbital Energies [Eh]
    ---------------------

    Doubly Occupied:

       1A    -19.164337     2A    -19.127777     3A    -19.124554
       4A    -14.436723     5A    -14.397691     6A    -14.392020
       7A    -14.367769     8A    -14.367638     9A    -14.365785
      10A    -10.341804    11A    -10.305286    12A    -10.303382
      13A    -10.302431    14A    -10.299793    15A    -10.299523
      16A    -10.267554    17A    -10.266587    18A    -10.260202
      19A    -10.259640    20A    -10.251082    21A    -10.244803
      22A    -10.240778    23A    -10.236433    24A    -10.234456
      25A    -10.233112    26A    -10.224426    27A    -10.223630
      28A    -10.221513    29A    -10.217992    30A    -10.217700
      31A    -10.216519    32A    -10.215708    33A    -10.215157
      34A    -10.211644    35A    -10.210207    36A    -10.209654
      37A    -10.208172    38A    -10.207271    39A    -10.205152
      40A    -10.205147    41A    -10.204934    42A    -10.204102
      43A    -10.203074    44A    -10.201348    45A    -10.201283
      46A    -10.198189    47A    -10.194855    48A    -10.192577
      49A    -10.191099    50A    -10.190025    51A    -10.187432
      52A    -10.181476    53A    -10.181057    54A    -10.171026
      55A     -1.113403    56A     -1.083248    57A     -1.076028
      58A     -1.073148    59A     -1.005903    60A     -0.966629
      61A     -0.960648    62A     -0.957482    63A     -0.956816
      64A     -0.908725    65A     -0.889309    66A     -0.888105
      67A     -0.874670    68A     -0.845632    69A     -0.825529
      70A     -0.820535    71A     -0.809886    72A     -0.807157
      73A     -0.802190    74A     -0.797726    75A     -0.794417
      76A     -0.789781    77A     -0.777186    78A     -0.775346
      79A     -0.774398    80A     -0.764906    81A     -0.750665
      82A     -0.741933    83A     -0.733696    84A     -0.724839
      85A     -0.711195    86A     -0.701423    87A     -0.695415
      88A     -0.681387    89A     -0.672615    90A     -0.663052
      91A     -0.655008    92A     -0.644207    93A     -0.639284
      94A     -0.631476    95A     -0.630324    96A     -0.624717
      97A     -0.614709    98A     -0.611750    99A     -0.604662
     100A     -0.592029   101A     -0.587675   102A     -0.583399
     103A     -0.581419   104A     -0.573445   105A     -0.559563
     106A     -0.546104   107A     -0.537674   108A     -0.534765
     109A     -0.529528   110A     -0.521482   111A     -0.511304
     112A     -0.509633   113A     -0.504684   114A     -0.502304
     115A     -0.498310   116A     -0.493025   117A     -0.487136
     118A     -0.480488   119A     -0.478636   120A     -0.475436
     121A     -0.473929   122A     -0.472864   123A     -0.466470
     124A     -0.465781   125A     -0.464003   126A     -0.460707
     127A     -0.458030   128A     -0.455437   129A     -0.447862
     130A     -0.446887   131A     -0.444188   132A     -0.440654
     133A     -0.439884   134A     -0.426306   135A     -0.426221
     136A     -0.423683   137A     -0.420841   138A     -0.412273
     139A     -0.410331   140A     -0.408517   141A     -0.397947
     142A     -0.392953   143A     -0.391628   144A     -0.386926
     145A     -0.383975   146A     -0.383232   147A     -0.379103
     148A     -0.367536   149A     -0.364725   150A     -0.363136
     151A     -0.361254   152A     -0.355517   153A     -0.348498
     154A     -0.341312   155A     -0.332484   156A     -0.329759
     157A     -0.326786   158A     -0.324625   159A     -0.318534
     160A     -0.304588   161A     -0.296425   162A     -0.287633
     163A     -0.287099   164A     -0.283764   165A     -0.282400
     166A     -0.281414   167A     -0.276649   168A     -0.276093
     169A     -0.274017   170A     -0.272560   171A     -0.270515
     172A     -0.269841   173A     -0.260300   174A     -0.259723
     175A     -0.258505   176A     -0.245442   177A     -0.230828
     178A     -0.215941   179A     -0.194837   180A     -0.184202

  @RKS Final Energy: -2282.29935248394349

   => Energetics <=

    Nuclear Repulsion Energy =           5091.4854164232492622
    One-Electron Energy =              -13216.7289735330596159
    Two-Electron Energy =                6102.2834141740986524
    DFT Exchange-Correlation Energy =    -259.3392095482315085
    Empirical Dispersion Energy =           0.0000000000000000
    VV10 Nonlocal Energy =                  0.0000000000000000
    Total Energy =                      -2282.2993524839430393

  Dipole Moment: [D]
     X:    -2.9150      Y:    -0.2810      Z:     5.9467     Total:     6.6287

*** Psi4 exiting successfully. Buy a developer a beer!
