                               Psi4 1.3.2 release

  ==> Input File <==

--------------------------------------------------------------------------
memory 8gb
molecule {
    symmetry c1 # this is important; some perturbations will break symmetry
#    no_reorient
C         0.00004489835216    1.19910506093172   -0.69228638304389
C         0.00006039546571    1.19909863503583    0.69230918678970
H         0.00007548095953    2.13479733929508    1.23253807771116
C         0.00000155424889    0.00001351547399   -1.38458982703249
C        -0.00003433370538   -1.19909026954742    0.69229653329614
H        -0.00006083375729   -2.13479359957630    1.23251787814524
H         0.00003054680175   -0.00000188782639    2.46505344661465
H         0.00004459211203    2.13480732156925   -1.23250970894599
C         0.00002008202591   -0.00000078853481    1.38459902399292
C        -0.00003471168995   -1.19908363777850   -0.69229999644260
H        -0.00005231158265    0.00002162669373   -2.46504425114030
H        -0.00009667230972   -2.13478359000419   -1.23252749861455

}

pert = 0.001
lambdas = [pert, -pert, 2.0*pert, -2.0*pert]

set {
    basis     6-31g
    d_convergence   8
    reference rhf
    scf_type direct
}
method = 'B3LYP'

perturbed_energies = np.zeros((len(lambdas),3))
x_perturbed_dipoles = np.zeros((len(lambdas),3))
y_perturbed_dipoles = np.zeros((len(lambdas),3))
z_perturbed_dipoles = np.zeros((len(lambdas),3))

# start with a reference dipole calculation
properties(method, properties=['dipole'])
mu_x = psi4.core.variable(method + ' DIPOLE X') / psi_dipmom_au2debye
mu_y = psi4.core.variable(method + ' DIPOLE Y') / psi_dipmom_au2debye
mu_z = psi4.core.variable(method + ' DIPOLE Z') / psi_dipmom_au2debye
analytic_dipole = np.array([mu_x, mu_y, mu_z])

# now compute with different applied fields
for step, l in enumerate(lambdas):
    set perturb_h true
    set perturb_with dipole
    # x pertubation
    set perturb_dipole [$l, 0, 0]
    perturbed_energies[step,0] = properties(method, properties=['dipole'])
    x_perturbed_dipoles[step,0] = psi4.core.variable(method + ' DIPOLE X')
    x_perturbed_dipoles[step,1] = psi4.core.variable(method + ' DIPOLE Y')
    x_perturbed_dipoles[step,2] = psi4.core.variable(method + ' DIPOLE Z')
    # y pertubation
    set perturb_dipole [0, $l, 0]
    perturbed_energies[step,1] = properties(method, properties=['dipole'])
    y_perturbed_dipoles[step,0] = psi4.core.variable(method + ' DIPOLE X')
    y_perturbed_dipoles[step,1] = psi4.core.variable(method + ' DIPOLE Y')
    y_perturbed_dipoles[step,2] = psi4.core.variable(method + ' DIPOLE Z')
    # z pertubation
    set perturb_dipole [0, 0, $l]
    perturbed_energies[step,2] = properties(method, properties=['dipole'])
    z_perturbed_dipoles[step,0] = psi4.core.variable(method + ' DIPOLE X')
    z_perturbed_dipoles[step,1] = psi4.core.variable(method + ' DIPOLE Y')
    z_perturbed_dipoles[step,2] = psi4.core.variable(method + ' DIPOLE Z')

# use 3- and 5-point finite difference formulae to compute the dipole
mu_3pt = (perturbed_energies[0] - perturbed_energies[1]) / (2.0*pert)
mu_5pt = (8.0*perturbed_energies[0] - 8.0*perturbed_energies[1] - perturbed_energies[2] + perturbed_energies[3]) / (12.0*pert)
# and the polarizability
a_x_3pt = (x_perturbed_dipoles[0] - x_perturbed_dipoles[1]) / (2.0*pert)
a_y_3pt = (y_perturbed_dipoles[0] - y_perturbed_dipoles[1]) / (2.0*pert)
a_z_3pt = (z_perturbed_dipoles[0] - z_perturbed_dipoles[1]) / (2.0*pert)
alpha_3pt = np.vstack((a_x_3pt, a_y_3pt, a_z_3pt))
a_x_5pt = (8.0*x_perturbed_dipoles[0] - 8.0*x_perturbed_dipoles[1] - x_perturbed_dipoles[2] + x_perturbed_dipoles[3]) / (12.0*pert)
a_y_5pt = (8.0*y_perturbed_dipoles[0] - 8.0*y_perturbed_dipoles[1] - y_perturbed_dipoles[2] + y_perturbed_dipoles[3]) / (12.0*pert)
a_z_5pt = (8.0*z_perturbed_dipoles[0] - 8.0*z_perturbed_dipoles[1] - z_perturbed_dipoles[2] + z_perturbed_dipoles[3]) / (12.0*pert)
alpha_5pt = np.vstack((a_x_5pt, a_y_5pt, a_z_5pt))

# let's see what happened!
np.set_printoptions(suppress=True)
print('Analytic dipole\n', analytic_dipole)
print('3point finite difference dipole\n', mu_3pt)
print('5point finite difference dipole\n', mu_5pt)

print('3point finite difference polarizability\n', alpha_3pt)
print('5point finite difference polarizability\n', alpha_5pt)
--------------------------------------------------------------------------

    Molecular point group: c1
  Charge       = 0
  Multiplicity = 1
  Basis Set: 6-31G
    Blend: 6-31G
  Basis Set: (6-31G AUX)
    Blend: CC-PVDZ-JKFIT
  @RKS Final Energy:  -232.19714910765168
    Total Energy =                       -232.1971491076516827
    Molecular point group: c1
  Basis Set: 6-31G
    Blend: 6-31G
  Basis Set: (6-31G AUX)
    Blend: CC-PVDZ-JKFIT
  @RKS Final Energy:  -232.19715847269603
    Total Energy =                       -232.1971584726960600
  Basis Set: 6-31G
    Blend: 6-31G
  Basis Set: (6-31G AUX)
    Blend: CC-PVDZ-JKFIT
  @RKS Final Energy:  -232.19718363138327
    Total Energy =                       -232.1971836313832682
  Basis Set: 6-31G
    Blend: 6-31G
  Basis Set: (6-31G AUX)
    Blend: CC-PVDZ-JKFIT
  @RKS Final Energy:  -232.19718363233412
    Total Energy =                       -232.1971836323340881
  @RKS Final Energy:  -232.19715841681418
    Total Energy =                       -232.1971584168141476
  @RKS Final Energy:  -232.19718363280811
    Total Energy =                       -232.1971836328081054
  @RKS Final Energy:  -232.19718363234944
    Total Energy =                       -232.1971836323494358
  @RKS Final Energy:  -232.19718651197178
    Total Energy =                       -232.1971865119717506
  @RKS Final Energy:  -232.19728720509295
    Total Energy =                       -232.1972872050929766
  Basis Set: 6-31G
    Blend: 6-31G
  Basis Set: (6-31G AUX)
    Blend: CC-PVDZ-JKFIT
  @RKS Final Energy:  -232.19728720748739
    Total Energy =                       -232.1972872074873919
  Basis Set: 6-31G
    Blend: 6-31G
  Basis Set: (6-31G AUX)
    Blend: CC-PVDZ-JKFIT
  @RKS Final Energy:  -232.19718640020568
    Total Energy =                       -232.1971864002056805
  Multiplicity = 1
  Basis Set: 6-31G
    Blend: 6-31G
  Basis Set: (6-31G AUX)
    Blend: CC-PVDZ-JKFIT
  @RKS Final Energy:  -232.19728720794359
    Total Energy =                       -232.1972872079436172
    Molecular point group: c1

    Geometry (in Angstrom), charge = 0, multiplicity = 1:

       Center              X                  Y                   Z               Mass
    ------------   -----------------  -----------------  -----------------  -----------------
         C            0.000036762796     1.199097914380    -0.692291131636    12.000000000000
         C            0.000052259909     1.199091488484     0.692304438197    12.000000000000
         H            0.000067345403     2.134790192744     1.232533329119     1.007825032230
         C           -0.000006581308     0.000006368923    -1.384594575625    12.000000000000
         C           -0.000042469262    -1.199097416099     0.692291784704    12.000000000000
         H           -0.000068969314    -2.134800746128     1.232513129553     1.007825032230
         H            0.000022411245    -0.000009034378     2.465048698022     1.007825032230
         H            0.000036456556     2.134800175018    -1.232514457538     1.007825032230
         C            0.000011946469    -0.000007935086     1.384594275401    12.000000000000
         C           -0.000042847246    -1.199090784330    -0.692304745035    12.000000000000
         H           -0.000060447139     0.000014480142    -2.465048999733     1.007825032230
         H           -0.000104807866    -2.134790736556    -1.232532247207     1.007825032230

  Charge       = 0
  Multiplicity = 1
  Basis Set: 6-31G
    Blend: 6-31G
  Basis Set: (6-31G AUX)
    Blend: CC-PVDZ-JKFIT

    Orbital Energies [Eh]
    ---------------------

    Doubly Occupied:

       1A    -10.182421     2A    -10.181469     3A    -10.181343
       4A    -10.179814     5A    -10.179678     6A    -10.178736
       7A     -0.859254     8A     -0.748029     9A     -0.748020
      10A     -0.603270    11A     -0.603257    12A     -0.527259
      13A     -0.458205    14A     -0.447967    15A     -0.423351
      16A     -0.423309    17A     -0.366687    18A     -0.341874
      19A     -0.341838    20A     -0.250213    21A     -0.250191

  @RKS Final Energy:  -232.19728720751795

   => Energetics <=

    Nuclear Repulsion Energy =            204.8706904043515351
    One-Electron Energy =                -716.9036299912734194
    Two-Electron Energy =                 308.0364437550136358
    DFT Exchange-Correlation Energy =     -28.2007913756096684
    Empirical Dispersion Energy =           0.0000000000000000
    VV10 Nonlocal Energy =                  0.0000000000000000
    Total Energy =                       -232.1972872075179168

  Dipole Moment: [D]
     X:    -0.0001      Y:     0.0000      Z:     0.3510     Total:     0.3510

*** Psi4 exiting successfully. Buy a developer a beer!
