                               Psi4 1.3.2 release

  ==> Input File <==

--------------------------------------------------------------------------
memory 8gb
molecule {
    symmetry c1 # this is important; some perturbations will break symmetry
#    no_reorient
C        -0.00003263734253   -1.14678869828885   -0.58285519520406
N        -0.00003091729056   -1.13621953650407    0.73957205100575
H        -0.00002561908273    1.98566748010393   -1.29237060868803
N        -0.00000780762357   -0.07240062603057   -1.35388307524816
N         0.00001542464491    1.20866525430401    0.61425675998242
C         0.00003528404371    1.07807342178823   -0.70166713379140
H         0.00003510509176    0.12645159297594    2.36585688582895
H        -0.00004797297897   -2.11218656979199   -1.07341009844503
C        -0.00002336954601    0.06861943650137    1.28447608660656

}

pert = 0.001
lambdas = [pert, -pert, 2.0*pert, -2.0*pert]

set {
    basis     6-31g
    d_convergence   8
    reference rhf
    scf_type direct
}
method = 'B3LYP'

perturbed_energies = np.zeros((len(lambdas),3))
x_perturbed_dipoles = np.zeros((len(lambdas),3))
y_perturbed_dipoles = np.zeros((len(lambdas),3))
z_perturbed_dipoles = np.zeros((len(lambdas),3))

# start with a reference dipole calculation
properties(method, properties=['dipole'])
mu_x = psi4.core.variable(method + ' DIPOLE X') / psi_dipmom_au2debye
mu_y = psi4.core.variable(method + ' DIPOLE Y') / psi_dipmom_au2debye
mu_z = psi4.core.variable(method + ' DIPOLE Z') / psi_dipmom_au2debye
analytic_dipole = np.array([mu_x, mu_y, mu_z])

# now compute with different applied fields
for step, l in enumerate(lambdas):
    set perturb_h true
    set perturb_with dipole
    # x pertubation
    set perturb_dipole [$l, 0, 0]
    perturbed_energies[step,0] = properties(method, properties=['dipole'])
    x_perturbed_dipoles[step,0] = psi4.core.variable(method + ' DIPOLE X')
    x_perturbed_dipoles[step,1] = psi4.core.variable(method + ' DIPOLE Y')
    x_perturbed_dipoles[step,2] = psi4.core.variable(method + ' DIPOLE Z')
    # y pertubation
    set perturb_dipole [0, $l, 0]
    perturbed_energies[step,1] = properties(method, properties=['dipole'])
    y_perturbed_dipoles[step,0] = psi4.core.variable(method + ' DIPOLE X')
    y_perturbed_dipoles[step,1] = psi4.core.variable(method + ' DIPOLE Y')
    y_perturbed_dipoles[step,2] = psi4.core.variable(method + ' DIPOLE Z')
    # z pertubation
    set perturb_dipole [0, 0, $l]
    perturbed_energies[step,2] = properties(method, properties=['dipole'])
    z_perturbed_dipoles[step,0] = psi4.core.variable(method + ' DIPOLE X')
    z_perturbed_dipoles[step,1] = psi4.core.variable(method + ' DIPOLE Y')
    z_perturbed_dipoles[step,2] = psi4.core.variable(method + ' DIPOLE Z')

# use 3- and 5-point finite difference formulae to compute the dipole
mu_3pt = (perturbed_energies[0] - perturbed_energies[1]) / (2.0*pert)
mu_5pt = (8.0*perturbed_energies[0] - 8.0*perturbed_energies[1] - perturbed_energies[2] + perturbed_energies[3]) / (12.0*pert)
# and the polarizability
a_x_3pt = (x_perturbed_dipoles[0] - x_perturbed_dipoles[1]) / (2.0*pert)
a_y_3pt = (y_perturbed_dipoles[0] - y_perturbed_dipoles[1]) / (2.0*pert)
a_z_3pt = (z_perturbed_dipoles[0] - z_perturbed_dipoles[1]) / (2.0*pert)
alpha_3pt = np.vstack((a_x_3pt, a_y_3pt, a_z_3pt))
a_x_5pt = (8.0*x_perturbed_dipoles[0] - 8.0*x_perturbed_dipoles[1] - x_perturbed_dipoles[2] + x_perturbed_dipoles[3]) / (12.0*pert)
a_y_5pt = (8.0*y_perturbed_dipoles[0] - 8.0*y_perturbed_dipoles[1] - y_perturbed_dipoles[2] + y_perturbed_dipoles[3]) / (12.0*pert)
a_z_5pt = (8.0*z_perturbed_dipoles[0] - 8.0*z_perturbed_dipoles[1] - z_perturbed_dipoles[2] + z_perturbed_dipoles[3]) / (12.0*pert)
alpha_5pt = np.vstack((a_x_5pt, a_y_5pt, a_z_5pt))

# let's see what happened!
np.set_printoptions(suppress=True)
print('Analytic dipole\n', analytic_dipole)
print('3point finite difference dipole\n', mu_3pt)
print('5point finite difference dipole\n', mu_5pt)

print('3point finite difference polarizability\n', alpha_3pt)
print('5point finite difference polarizability\n', alpha_5pt)
--------------------------------------------------------------------------

    Molecular point group: c1
  Charge       = 0
  Multiplicity = 1
  Basis Set: 6-31G
    Blend: 6-31G
  Basis Set: (6-31G AUX)
    Blend: CC-PVDZ-JKFIT
  @RKS Final Energy:  -280.24486264693593
    Total Energy =                       -280.2448626469359283
    Molecular point group: c1
  Basis Set: 6-31G
    Blend: 6-31G
  Basis Set: (6-31G AUX)
    Blend: CC-PVDZ-JKFIT
  @RKS Final Energy:  -280.24487202911564
    Total Energy =                       -280.2448720291155837
  Basis Set: 6-31G
    Blend: 6-31G
  Basis Set: (6-31G AUX)
    Blend: CC-PVDZ-JKFIT
  @RKS Final Energy:  -280.24488808034397
    Total Energy =                       -280.2448880803439692
  Basis Set: 6-31G
    Blend: 6-31G
  Basis Set: (6-31G AUX)
    Blend: CC-PVDZ-JKFIT
  @RKS Final Energy:  -280.24488796240962
    Total Energy =                       -280.2448879624096207
  @RKS Final Energy:  -280.24487202631576
    Total Energy =                       -280.2448720263157611
  @RKS Final Energy:  -280.24488779627484
    Total Energy =                       -280.2448877962748384
  @RKS Final Energy:  -280.24488791409431
    Total Energy =                       -280.2448879140942495
  @RKS Final Energy:  -280.24490017286718
    Total Energy =                       -280.2449001728671760
  @RKS Final Energy:  -280.24496409403162
    Total Energy =                       -280.2449640940316158
  Basis Set: 6-31G
    Blend: 6-31G
  Basis Set: (6-31G AUX)
    Blend: CC-PVDZ-JKFIT
  @RKS Final Energy:  -280.24496388090137
    Total Energy =                       -280.2449638809013663
  Basis Set: 6-31G
    Blend: 6-31G
  Basis Set: (6-31G AUX)
    Blend: CC-PVDZ-JKFIT
  @RKS Final Energy:  -280.24490016726782
    Total Energy =                       -280.2449001672678150
  Multiplicity = 1
  Basis Set: 6-31G
    Blend: 6-31G
  Basis Set: (6-31G AUX)
    Blend: CC-PVDZ-JKFIT
  @RKS Final Energy:  -280.24496353225624
    Total Energy =                       -280.2449635322562358
    Molecular point group: c1

    Geometry (in Angstrom), charge = 0, multiplicity = 1:

       Center              X                  Y                   Z               Mass
    ------------   -----------------  -----------------  -----------------  -----------------
         C           -0.000025063392    -1.146781458230    -0.582839917417    12.000000000000
         N           -0.000023343340    -1.136212296445     0.739587328793    14.003074004430
         H           -0.000018045132     1.985674720163    -1.292355330901     1.007825032230
         N           -0.000000233673    -0.072393385972    -1.353867797461    14.003074004430
         N            0.000022998596     1.208672494363     0.614272037770    14.003074004430
         C            0.000042857995     1.078080661847    -0.701651856004    12.000000000000
         H            0.000042679043     0.126458833035     2.365872163616     1.007825032230
         H           -0.000040399028    -2.112179329733    -1.073394820658     1.007825032230
         C           -0.000015795595     0.068626676560     1.284491364394    12.000000000000

  Charge       = 0
  Multiplicity = 1
  Basis Set: 6-31G
    Blend: 6-31G
  Basis Set: (6-31G AUX)
    Blend: CC-PVDZ-JKFIT

    Orbital Energies [Eh]
    ---------------------

    Doubly Occupied:

       1A    -14.373386     2A    -14.371641     3A    -14.371520
       4A    -10.290721     5A    -10.290591     6A    -10.288366
       7A     -1.086784     8A     -0.950985     9A     -0.950381
      10A     -0.718480    11A     -0.717049    12A     -0.584977
      13A     -0.576005    14A     -0.484260    15A     -0.462523
      16A     -0.460272    17A     -0.372052    18A     -0.355714
      19A     -0.355469    20A     -0.276479    21A     -0.274720

  @RKS Final Energy:  -280.24496374492617

   => Energetics <=

    Nuclear Repulsion Energy =            213.7447543086988162
    One-Electron Energy =                -800.5578986592954607
    Two-Electron Energy =                 337.4454446926559967
    DFT Exchange-Correlation Energy =     -30.8772640869855444
    Empirical Dispersion Energy =           0.0000000000000000
    VV10 Nonlocal Energy =                  0.0000000000000000
    Total Energy =                       -280.2449637449261672

  Dipole Moment: [D]
     X:    -0.0000      Y:    -0.0004      Z:     0.2570     Total:     0.2570

*** Psi4 exiting successfully. Buy a developer a beer!
