                               Psi4 1.3.2 release

  ==> Input File <==

--------------------------------------------------------------------------
memory 8gb
molecule {
    symmetry c1 # this is important; some perturbations will break symmetry
#    no_reorient
C
N      1      1.33216
H      1      3.21844    2    102.76158
N      1      1.33219    2    126.11910    3      0.00137
N      2      2.37528    3     30.00048    4    179.99498
C      3      1.08467    4     35.12524    5      0.00137
H      4      3.74531    5     30.00185    6   -179.99747
H      5      3.74538    6     56.94034    7      0.00311
C      6      2.23306    7      9.70079    8     -0.00450

}

pert = 0.001
lambdas = [pert, -pert, 2.0*pert, -2.0*pert]

set {
    basis     sto-3g
    d_convergence   6
    reference rhf
    scf_type direct
}
method = 'B3LYP'
energy(method)
--------------------------------------------------------------------------

    Molecular point group: c1

    Geometry (in Angstrom), charge = 0, multiplicity = 1:

       Center              X                  Y                   Z               Mass
    ------------   -----------------  -----------------  -----------------  -----------------
         C           -0.000033534143    -1.149342296089    -0.584094391366    12.000000000000
         N           -0.000033534143    -1.149342296089     0.748065608634    14.003074004430
         H           -0.000033534143     1.989594819410    -1.295030266494     1.007825032230
         N           -0.000007802684    -0.073207972541    -1.369374668160    14.003074004430
         N            0.000044790169     1.222552903874     0.621305075892    14.003074004430
         C            0.000014815141     1.080545191318    -0.703305854095    12.000000000000
         H           -0.000007266676     0.126645172923     2.370599358000     1.007825032230
         H           -0.000048644965    -2.116368598429    -1.075596375911     1.007825032230
         C            0.000022201360     0.068804830681     1.287407185547    12.000000000000

  Charge       = 0
  Multiplicity = 1
  Basis Set: STO-3G
    Blend: STO-3G
  Basis Set: (STO-3G AUX)
    Blend: DEF2-SVP-JKFIT

    Orbital Energies [Eh]
    ---------------------

    Doubly Occupied:

       1A    -14.184483     2A    -14.184287     3A    -14.184284
       4A    -10.121512     5A    -10.121509     6A    -10.121025
       7A     -1.024555     8A     -0.893797     9A     -0.893780
      10A     -0.660915    11A     -0.660909    12A     -0.533568
      13A     -0.513492    14A     -0.423658    15A     -0.409851
      16A     -0.409833    17A     -0.308178    18A     -0.292419
      19A     -0.292406    20A     -0.197019    21A     -0.197014

  @RKS Final Energy:  -276.72444718686052

   => Energetics <=

    Nuclear Repulsion Energy =            212.3241074713179444
    One-Electron Energy =                -794.7457576425065326
    Two-Electron Energy =                 336.4700437518874878
    DFT Exchange-Correlation Energy =     -30.7728407675593942
    Empirical Dispersion Energy =           0.0000000000000000
    VV10 Nonlocal Energy =                  0.0000000000000000
    Total Energy =                       -276.7244471868605160

  Dipole Moment: [D]
     X:    -0.0000      Y:     0.0000      Z:     0.0000     Total:     0.0000

*** Psi4 exiting successfully. Buy a developer a beer!
