                               Psi4 1.3.2 release

  ==> Input File <==

--------------------------------------------------------------------------
memory 8gb
molecule {
    symmetry c1 # this is important; some perturbations will break symmetry
#    no_reorient
C
C      1      1.39488
H      1      2.15458    2     25.89906
C      1      1.39482    2    119.99966    3   -179.99418
C      2      2.41593    3    150.00304    4   -179.99180
H      3      4.29813    4     50.80650    5     -0.00164
H      4      3.87635    5     30.00139    6    179.98875
H      5      3.87637    6    179.99593    7    -70.33537
C      6      2.15457    7     25.89980    8      0.00070
C      7      3.40080    8     50.80591    9     -0.00136
H      8      2.48148    9     80.80515   10     -0.00266
H      9      3.40069   10      9.19420   11   -179.99033

}

pert = 0.001
lambdas = [pert, -pert, 2.0*pert, -2.0*pert]

set {
    basis     sto-3g
    d_convergence   6
    reference rhf
    scf_type direct
}
method = 'B3LYP'
energy(method)
--------------------------------------------------------------------------

    Molecular point group: c1

    Geometry (in Angstrom), charge = 0, multiplicity = 1:

       Center              X                  Y                   Z               Mass
    ------------   -----------------  -----------------  -----------------  -----------------
         C            0.000058335043     1.207962073842    -0.697407402451    12.000000000000
         C            0.000058335043     1.207962073842     0.697472597549    12.000000000000
         H            0.000058335043     2.149054673108     1.240777236845     1.007825032230
         C           -0.000064366673     0.000008387874    -1.394810234322    12.000000000000
         C            0.000008152178    -1.207967924893     0.697412621758    12.000000000000
         H           -0.000073719801    -2.149075324848     1.240788436839     1.007825032230
         H            0.000048674981     0.000059515081     2.481539763693     1.007825032230
         H            0.000040897954     2.149071282545    -1.240764907663     1.007825032230
         C            0.000031667672    -0.000017068609     1.394802998100    12.000000000000
         C           -0.000092002873    -1.207955768621    -0.697475759162    12.000000000000
         H            0.000016878110     0.000036967683    -2.481488286732     1.007825032230
         H           -0.000092499756    -2.149049161272    -1.240790583124     1.007825032230

  Charge       = 0
  Multiplicity = 1
  Basis Set: STO-3G
    Blend: STO-3G
  Basis Set: (STO-3G AUX)
    Blend: DEF2-SVP-JKFIT

    Orbital Energies [Eh]
    ---------------------

    Doubly Occupied:

       1A    -10.006315     2A    -10.005973     3A    -10.005972
       4A    -10.005370     5A    -10.005369     6A    -10.004903
       7A     -0.808174     8A     -0.702222     9A     -0.702203
      10A     -0.561154    11A     -0.561134    12A     -0.485608
      13A     -0.425280    14A     -0.396390    15A     -0.379920
      16A     -0.379905    17A     -0.316490    18A     -0.299144
      19A     -0.299111    20A     -0.196199    21A     -0.196177

  @RKS Final Energy:  -229.40600320227853

   => Energetics <=

    Nuclear Repulsion Energy =            203.4162121243708157
    One-Electron Energy =                -711.9599370376055276
    Two-Electron Energy =                 307.2565235762873499
    DFT Exchange-Correlation Energy =     -28.1188018653311289
    Empirical Dispersion Energy =           0.0000000000000000
    VV10 Nonlocal Energy =                  0.0000000000000000
    Total Energy =                       -229.4060032022784981

  Dipole Moment: [D]
     X:    -0.0000      Y:     0.0000      Z:     0.0000     Total:     0.0000

*** Psi4 exiting successfully. Buy a developer a beer!
