                               Psi4 1.3.2 release

  ==> Input File <==

--------------------------------------------------------------------------
memory 8gb
molecule {
    symmetry c1 # this is important; some perturbations will break symmetry
#    no_reorient
N
C      1      1.33384
N      1      2.35778    2     87.70244
C      1      2.40890    2    148.28227    3     -1.79190
H      2      6.18372    3     69.29385    4     -3.48402
C      3      1.33290    4    148.50029    5     29.67005
C      4      4.81502    5    111.23272    6     14.76193
H      5      5.37553    6     44.82633    7     -7.81904
C      6      2.25453    7     71.76240    8     10.97960
N      7      2.41003    8    124.43127    9     -8.53201
C      8      3.39999    9    124.73092   10      9.32910
C      9      3.60763   10     41.94889   11   -178.63073
H     10      7.23432   11    158.79418   12    -18.20672
C     11      7.32470   12     48.64617   13    150.37594
C     12      8.79514   13    110.95744   14      6.04778
C     13      8.12121   14      9.77833   15    -21.55232
C     14      6.82194   15     21.90348   16    156.60796
C     15      2.53019   16     47.68317   17    -71.39478
C     16      2.42525   17     12.32070   18     30.80692
C     17      5.99860   18     23.70856   19     -5.72564
C     18      4.25421   19     59.60171   20    167.38383
H     19      2.16023   20     25.84062   21     19.81602
C     20      8.73053   21    157.40906   22    127.17188
C     21     12.32352   22     27.52625   23     -6.27508
H     22      4.96143   23     69.85669   24      4.06643
C     23      2.78118   24     59.77139   25    -15.72667
H     24      1.08929   25     83.00716   26   -176.77749
H     25      6.39818   26      8.43945   27   -174.36165
C     26      1.40109   27     99.11925   28   -178.13301
H     27      5.37340   28    130.63817   29   -165.95767
C     28      4.66972   29      1.92780   30      2.74427
C     29      1.39727   30     70.97719   31     -3.90455
H     30      7.37140   31      6.35632   32   -153.87495
C     31     10.19831   32     15.25485   33     16.52922
C     32      7.35908   33     56.44927   34     -0.58101
H     33      5.38727   34     15.10756   35     -1.85264
C     34      2.78811   35     30.20490   36    178.33008
C     35      2.78206   36    178.21912   37    -28.86764
H     36      4.96045   37     34.07103   38     -0.40164
C     37      2.53298   38     60.04948   39     -1.83056
N     38      3.65260   39     98.04967   40     -9.72669
O     39      2.54376   40     27.06444   41   -128.02527
C     40      3.58043   41     33.92124   42     -2.29761
C     41     18.78972   42    111.85926   43    168.11396
C     42      2.91305   43     14.24268   44    -10.65154
H     43      6.46353   44    102.71628   45    148.98625
H     44     12.57256   45     38.64585   46    155.82313
H     45     13.99533   46    119.77982   47     -8.59300
C     46      5.75123   47     42.63199   48    160.33155
H     47     13.88686   48    172.62792   49    164.49339
C     48     16.86155   49      4.61935   50   -155.82690
C     49     22.77790   50     72.56469   51     75.96514
C     50     23.75743   51      1.20822   52     78.25477
C     51      2.40130   52    103.60923   53     -0.13429
C     52     24.24901   53     58.62696   54    154.65786
O     53     19.90089   54    140.56609   55    -23.39286
C     54     24.05094   55      2.70814   56     31.32721
O     55     20.85467   56     12.77354   57    -96.04500
N     56     12.34198   57    162.80211   58    -26.61274
H     57     17.83245   58     35.97647   59   -154.90480
C     58      2.91770   59     26.86997   60   -162.06053
N     59     13.31849   60     61.40971   61   -165.21505
C     60     15.32924   61      1.95804   62   -165.31724
C     61     18.90768   62      5.37415   63     -7.78251
C     62      3.85026   63    142.14918   64    -13.80796
C     63      1.29814   64    145.74163   65    -44.65186
H     64      5.14413   65     49.11655   66     36.72632
C     65     19.99968   66      4.02368   67    121.66154
H     66      1.08350   67    133.61472   68   -158.59339
C     67     20.51646   68     73.19718   69     60.78030
H     68     19.94547   69    103.40911   70    -65.67719
C     69     24.94108   70     67.22677   71     -7.27166
H     70     26.47186   71     13.84538   72      8.09621
H     71     25.90668   72     88.03635   73   -107.02913
C     72     26.02548   73    112.98694   74     63.85576
H     73     26.51590   74     60.33983   75      0.39500
H     74     25.69395   75      2.40017   76   -143.03098
H     75     24.38708   76    141.99143   77    118.15181

}

pert = 0.001
lambdas = [pert, -pert, 2.0*pert, -2.0*pert]

set {
    basis     sto-3g
    d_convergence   6
    reference rhf
    scf_type direct
}
method = 'B3LYP'
energy(method)
--------------------------------------------------------------------------

    Molecular point group: c1

    Geometry (in Angstrom), charge = 0, multiplicity = 1:

       Center              X                  Y                   Z               Mass
    ------------   -----------------  -----------------  -----------------  -----------------
         N            0.477112798028    -1.141902089699    -0.722756536543    14.003074004430
         C            0.477112798028    -1.141902089699     0.611083463457    12.000000000000
         N            0.477112798028     1.213982498651    -0.628234926440    14.003074004430
         C            0.437511819008     0.123921425195    -2.771883619376    12.000000000000
         H            0.030578793469    -1.891816888760    -5.510732297845     1.007825032230
         C            0.463364351365     1.109183965237     0.700467695522    12.000000000000
         C            0.505096625582    -2.452801486840     1.295099160144    12.000000000000
         H            0.897233517170    -3.618359631925    -0.494330945599     1.007825032230
         C            0.474222659652     0.060736593486    -1.295414497071    12.000000000000
         N            0.452897851337    -0.044452168674     1.368402983746    14.003074004430
         C            0.561871994531    -4.977148041329     2.604242711377    12.000000000000
         C            0.450905047321     2.364575588386     1.480693640490    12.000000000000
         H           -0.337550184185     7.099143222310     2.192795278384     1.007825032230
         C            0.227031095752    -1.028568460055    -3.555938369797    12.000000000000
         C            0.231550709906     0.392755914934    -7.087754204344    12.000000000000
         C            0.605778959773     1.342615459625    -3.457564896658    12.000000000000
         C           -1.150769750324    -0.645363167610   -10.226296973050    12.000000000000
         C            0.164560419590    -0.967593609636    -4.955426155449    12.000000000000
         C            0.308595847107     0.260119387416    -5.607383961997    12.000000000000
         C            0.549285794416     1.411842325714    -4.854061063949    12.000000000000
         C           -0.903049074227    -0.568473368772    -9.054110789102    12.000000000000
         H            0.687084189636     2.371343087706    -5.350333938072     1.007825032230
         C            0.172466741162     3.565226984031     3.598340724615    12.000000000000
         C            0.187401433033     2.372870092576     2.863462853381    12.000000000000
         H            0.108441221822    -1.998952018498    -3.074047346848     1.007825032230
         C            0.710680947287     3.608603315953     0.870080078241    12.000000000000
         H           -0.011494198901     1.439505983275     3.388652981969     1.007825032230
         H            0.942565613567     3.653102812115    -0.193904988692     1.007825032230
         C            0.701270745216     4.805527353732     1.598322815235    12.000000000000
         H            0.244857534468    -3.827675310878     4.420405163126     1.007825032230
         C            0.397370380874     6.028994607324     3.789081982678    12.000000000000
         C            0.415720975541     4.787944219918     2.965990763000    12.000000000000
         H           -0.030836411866     3.534410689369     4.667832996891     1.007825032230
         C            0.731601808689    -3.646143013094     0.581976085654    12.000000000000
         C            0.322885980083    -2.565309379011     2.688318978591    12.000000000000
         H            0.163659136841    -1.669670627115     3.288562470180     1.007825032230
         C            0.352689816889    -3.807333753450     3.339511329272    12.000000000000
         C            0.766227114224    -4.889286035578     1.224611705223    12.000000000000
         H            0.955435758640    -5.788916679810     0.640739602042     1.007825032230
         C            0.609480234822    -6.325135038171     3.235959157330    12.000000000000
         N           -0.168799745972    -6.504522627531     4.364392315828    14.003074004430
         O            1.290649686303    -7.208422276470     2.724810239365    15.994914619570
         C           -0.422247334502    -8.597825734028     5.803038082599    12.000000000000
         C           -2.445767179891    12.145674883170     4.166579790652    12.000000000000
         C           -0.304397930790    -7.611332091431     5.128837502670    12.000000000000
         H            0.903138996773    -9.407493074512    12.077192203396     1.007825032230
         H            0.777320237485     2.262116513179    -2.904222596668     1.007825032230
         H            0.938371610803     5.727968264590     1.080646340280     1.007825032230
         C           -0.544498047507    -9.674779219820     6.517556278495    12.000000000000
         H            0.029353420711    -5.443714522148   -14.432691460987     1.007825032230
         C            0.000713479551    -9.697331421318     7.825481047768    12.000000000000
         C           -3.456332808616    12.776273587794     4.006744743613    12.000000000000
         C            0.467113309316    -9.726200542407     8.931472550830    12.000000000000
         C            0.938691122073    -9.757242662316    10.035198286541    12.000000000000
         C            0.062779430282    -3.564023751903   -13.560981856048    12.000000000000
         O            0.872470133904     1.266458193497    -7.652934660548    15.994914619570
         C           -0.409239883858    -2.673202847654   -12.909238442024    12.000000000000
         O            0.684734038355     5.973473545401     4.974567193773    15.994914619570
         N           -0.018896378170     7.184450662654     3.140920128014    14.003074004430
         H           -0.772926806482    -5.746675490227     4.652588648007     1.007825032230
         C           -0.103009724088     8.440889355285     3.631327722991    12.000000000000
         N           -0.634020761599    -0.478688847672    -7.734744942146    14.003074004430
         C           -0.178439473566     9.559581330188     4.060401231634    12.000000000000
         C           -0.875882366943    -1.779210663986   -12.257428882119    12.000000000000
         C           -1.422512057189    -0.716368941091   -11.495900578060    12.000000000000
         C           -0.251518489785    10.766831457409     4.531966759756    12.000000000000
         H           -1.195455646106    -1.100544586457    -7.168287625350     1.007825032230
         C           -1.440184863128    11.511907053599     4.329906003976    12.000000000000
         H            0.567269796079    11.195160813285     5.097733457103     1.007825032230
         C            1.453619792860    -9.792258421651    11.226321390809    12.000000000000
         H           -2.015279174559     0.048982954687   -11.982433226081     1.007825032230
         C            0.577919796461    -4.524564335549   -14.265830248707    12.000000000000
         H            1.568006583060    -4.422824901823   -14.695010966883     1.007825032230
         H            2.443383779004   -10.203355909753    11.387760206957     1.007825032230
         C           -4.548923241089    13.456524861873     3.837250179029    12.000000000000
         H           -4.599177929451    14.245899655338     3.096490133572     1.007825032230
         H           -5.427450764026    13.246708457918     4.436248763333     1.007825032230
         H           -1.007782414000   -10.564868100045     6.109401744891     1.007825032230

  Charge       = 0
  Multiplicity = 1
  Basis Set: STO-3G
    Blend: STO-3G
  Basis Set: (STO-3G AUX)
    Blend: DEF2-SVP-JKFIT

    Orbital Energies [Eh]
    ---------------------

    Doubly Occupied:

       1A    -18.887664     2A    -18.883235     3A    -18.881190
       4A    -14.236377     5A    -14.232083     6A    -14.229427
       7A    -14.165978     8A    -14.165510     9A    -14.165244
      10A    -10.133892    11A    -10.130640    12A    -10.130146
      13A    -10.126244    14A    -10.126160    15A    -10.125750
      16A    -10.048192    17A    -10.047256    18A    -10.047116
      19A    -10.046710    20A    -10.046666    21A    -10.046580
      22A    -10.044578    23A    -10.043440    24A    -10.043334
      25A    -10.033555    26A    -10.032638    27A    -10.032584
      28A    -10.032542    29A    -10.032329    30A    -10.031798
      31A    -10.031699    32A    -10.031384    33A    -10.031082
      34A    -10.030735    35A    -10.030173    36A    -10.029763
      37A    -10.029315    38A    -10.027765    39A    -10.027394
      40A    -10.026639    41A    -10.026230    42A    -10.024815
      43A    -10.023714    44A    -10.022393    45A    -10.021555
      46A    -10.020235    47A    -10.019603    48A    -10.019215
      49A    -10.018777    50A    -10.016971    51A    -10.014314
      52A     -9.996215    53A     -9.990182    54A     -9.988315
      55A     -1.019990    56A     -1.013579    57A     -1.009587
      58A     -1.007258    59A     -0.913512    60A     -0.909043
      61A     -0.908215    62A     -0.894215    63A     -0.893940
      64A     -0.834745    65A     -0.833415    66A     -0.832812
      67A     -0.793721    68A     -0.793302    69A     -0.790474
      70A     -0.765391    71A     -0.765106    72A     -0.764678
      73A     -0.752745    74A     -0.752045    75A     -0.745852
      76A     -0.725290    77A     -0.724404    78A     -0.723914
      79A     -0.713035    80A     -0.712647    81A     -0.710406
      82A     -0.679466    83A     -0.678867    84A     -0.672424
      85A     -0.655787    86A     -0.655154    87A     -0.629571
      88A     -0.613404    89A     -0.612401    90A     -0.604333
      91A     -0.595326    92A     -0.594976    93A     -0.594137
      94A     -0.582101    95A     -0.581645    96A     -0.571042
      97A     -0.555471    98A     -0.554412    99A     -0.539439
     100A     -0.535478   101A     -0.534380   102A     -0.518551
     103A     -0.512569   104A     -0.496462   105A     -0.495240
     106A     -0.481402   107A     -0.466903   108A     -0.466694
     109A     -0.463871   110A     -0.451952   111A     -0.451770
     112A     -0.451166   113A     -0.448465   114A     -0.447493
     115A     -0.442750   116A     -0.442147   117A     -0.438688
     118A     -0.434769   119A     -0.428242   120A     -0.427447
     121A     -0.426045   122A     -0.425519   123A     -0.424198
     124A     -0.423551   125A     -0.415486   126A     -0.406822
     127A     -0.405841   128A     -0.399016   129A     -0.398142
     130A     -0.397485   131A     -0.383981   132A     -0.381767
     133A     -0.380761   134A     -0.360396   135A     -0.351622
     136A     -0.350324   137A     -0.346149   138A     -0.345399
     139A     -0.334078   140A     -0.331132   141A     -0.330010
     142A     -0.329580   143A     -0.328671   144A     -0.326972
     145A     -0.326460   146A     -0.325616   147A     -0.324695
     148A     -0.321351   149A     -0.316295   150A     -0.313642
     151A     -0.312551   152A     -0.302497   153A     -0.299792
     154A     -0.298860   155A     -0.282212   156A     -0.276471
     157A     -0.275171   158A     -0.268463   159A     -0.265466
     160A     -0.257423   161A     -0.219024   162A     -0.218085
     163A     -0.217715   164A     -0.213503   165A     -0.207079
     166A     -0.205384   167A     -0.194657   168A     -0.194183
     169A     -0.194006   170A     -0.189603   171A     -0.188973
     172A     -0.188478   173A     -0.173444   174A     -0.171761
     175A     -0.164727   176A     -0.159419   177A     -0.158971
     178A     -0.146202   179A     -0.144207   180A     -0.131850

  @RKS Final Energy: -2253.74417700177173

   => Energetics <=

    Nuclear Repulsion Energy =           5083.7477456813248864
    One-Electron Energy =              -13180.4522615267997026
    Two-Electron Energy =                6101.9151675904086005
    DFT Exchange-Correlation Energy =    -258.9548287467051182
    Empirical Dispersion Energy =           0.0000000000000000
    VV10 Nonlocal Energy =                  0.0000000000000000
    Total Energy =                      -2253.7441770017712770

  Dipole Moment: [D]
     X:    -2.8740      Y:    -0.5301      Z:    -0.2690     Total:     2.9348

*** Psi4 exiting successfully. Buy a developer a beer!
